    1C
    1UUSER                                                              
    1UDATE              15.july.2022                                    
    1UTIME              13:02:00                                        
    1UHOST                                                              
    1UPGM               CalculiX                                        
    1UVERSION           Version 2.19                             
    1UCOMPILETIME       Mon Jan  3 18:43:40 EET 2022                    
    1UDIR                                                               
    1UDBN                                                               
    1UMAT    1MATERIALSOLID                                             
    2C                          2374                                     1
 -1         1 9.10000E+02 6.60000E+02 9.00000E+01
 -1         2 9.10000E+02-6.60000E+02 9.00000E+01
 -1         3-9.10000E+02 6.60000E+02 9.00000E+01
 -1         4-9.10000E+02-6.60000E+02 9.00000E+01
 -1         5 9.10000E+02 6.60000E+02 1.00000E+01
 -1         6 9.10000E+02-6.60000E+02 1.00000E+01
 -1         7-9.10000E+02 6.60000E+02 1.00000E+01
 -1         8-9.10000E+02-6.60000E+02 1.00000E+01
 -1         9 9.90000E+02-7.40000E+02 9.00000E+01
 -1        10 9.90000E+02-7.40000E+02 1.00000E+01
 -1        11-9.90000E+02-7.40000E+02 9.00000E+01
 -1        12-9.90000E+02-7.40000E+02 1.00000E+01
 -1        13 9.90000E+02 7.40000E+02 9.00000E+01
 -1        14 9.90000E+02 7.40000E+02 1.00000E+01
 -1        15-9.90000E+02 7.40000E+02 9.00000E+01
 -1        16-9.90000E+02 7.40000E+02 1.00000E+01
 -1        17 5.63100E+00 1.50000E+02 1.00000E+02
 -1        18-4.36900E+00 1.50000E+02 1.00000E+02
 -1        19-4.36900E+00 1.50000E+02-3.10777E-14
 -1        20 5.63100E+00 1.50000E+02-3.10820E-14
 -1        21-9.00000E+02-6.50000E+02 1.00000E+02
 -1        22 9.00000E+02-6.50000E+02 1.00000E+02
 -1        23 9.00000E+02 6.50000E+02 1.00000E+02
 -1        24 5.63100E+00 6.50000E+02 1.00000E+02
 -1        25-4.36900E+00 6.50000E+02 1.00000E+02
 -1        26-9.00000E+02 6.50000E+02 1.00000E+02
 -1        27-4.36900E+00 6.50000E+02-1.42100E-13
 -1        28 5.63100E+00 6.50000E+02-1.42104E-13
 -1        29-9.00000E+02 6.50000E+02 0.00000E+00
 -1        30-9.00000E+02-6.50000E+02 0.00000E+00
 -1        31 9.00000E+02 6.50000E+02 0.00000E+00
 -1        32 9.00000E+02-6.50000E+02 0.00000E+00
 -1        33 1.00000E+03-7.50000E+02 1.00000E+02
 -1        34 1.00000E+03-7.50000E+02 0.00000E+00
 -1        35-1.00000E+03-7.50000E+02 1.00000E+02
 -1        36-1.00000E+03-7.50000E+02 0.00000E+00
 -1        37 1.00000E+03 7.50000E+02 1.00000E+02
 -1        38 1.00000E+03 7.50000E+02 0.00000E+00
 -1        39-1.00000E+03 7.50000E+02 1.00000E+02
 -1        40-1.00000E+03 7.50000E+02 0.00000E+00
 -1        41-7.69860E+02 6.60000E+02 1.00000E+01
 -1        42-5.42360E+02 6.60000E+02 1.00000E+01
 -1        43-3.58540E+02 6.60000E+02 1.00000E+01
 -1        44-2.23860E+02 6.60000E+02 1.00000E+01
 -1        45-1.21940E+02 6.60000E+02 1.00000E+01
 -1        46-5.82400E+01 6.60000E+02 1.00000E+01
 -1        47-3.64000E+00 6.60000E+02 1.00000E+01
 -1        48 4.18600E+01 6.60000E+02 1.00000E+01
 -1        49 1.03740E+02 6.60000E+02 1.00000E+01
 -1        50 1.87460E+02 6.60000E+02 1.00000E+01
 -1        51 3.00300E+02 6.60000E+02 1.00000E+01
 -1        52 4.44080E+02 6.60000E+02 1.00000E+01
 -1        53 6.58840E+02 6.60000E+02 1.00000E+01
 -1        54 8.17180E+02 6.60000E+02 1.00000E+01
 -1        55-7.93520E+02 6.60000E+02 9.00000E+01
 -1        56-6.31540E+02 6.60000E+02 9.00000E+01
 -1        57-4.34980E+02 6.60000E+02 9.00000E+01
 -1        58-2.83920E+02 6.60000E+02 9.00000E+01
 -1        59-1.80180E+02 6.60000E+02 9.00000E+01
 -1        60-1.01920E+02 6.60000E+02 9.00000E+01
 -1        61-4.73200E+01 6.60000E+02 9.00000E+01
 -1        62-5.46000E+00 6.60000E+02 9.00000E+01
 -1        63 2.36600E+01 6.60000E+02 9.00000E+01
 -1        64 6.91600E+01 6.60000E+02 9.00000E+01
 -1        65 1.58340E+02 6.60000E+02 9.00000E+01
 -1        66 2.85740E+02 6.60000E+02 9.00000E+01
 -1        67 4.78660E+02 6.60000E+02 9.00000E+01
 -1        68 6.75220E+02 6.60000E+02 9.00000E+01
 -1        69 8.09900E+02 6.60000E+02 9.00000E+01
 -1        70 9.10000E+02 5.68920E+02 1.00000E+01
 -1        71 9.10000E+02 3.85440E+02 1.00000E+01
 -1        72 9.10000E+02 1.20120E+02 1.00000E+01
 -1        73 9.10000E+02-2.36280E+02 1.00000E+01
 -1        74 9.10000E+02-4.36920E+02 1.00000E+01
 -1        75 9.10000E+02-5.68920E+02 1.00000E+01
 -1        76 9.10000E+02 5.62320E+02 9.00000E+01
 -1        77 9.10000E+02 3.97320E+02 9.00000E+01
 -1        78 9.10000E+02 1.30680E+02 9.00000E+01
 -1        79 9.10000E+02-1.91400E+02 9.00000E+01
 -1        80 9.10000E+02-4.10520E+02 9.00000E+01
 -1        81 9.10000E+02-5.54400E+02 9.00000E+01
 -1        82 8.17180E+02-6.60000E+02 1.00000E+01
 -1        83 6.67940E+02-6.60000E+02 1.00000E+01
 -1        84 4.56820E+02-6.60000E+02 1.00000E+01
 -1        85 7.28000E+01-6.60000E+02 1.00000E+01
 -1        86-3.00300E+02-6.60000E+02 1.00000E+01
 -1        87-5.64200E+02-6.60000E+02 1.00000E+01
 -1        88-7.82600E+02-6.60000E+02 1.00000E+01
 -1        89 8.11720E+02-6.60000E+02 9.00000E+01
 -1        90 6.84320E+02-6.60000E+02 9.00000E+01
 -1        91 5.05960E+02-6.60000E+02 9.00000E+01
 -1        92 2.25680E+02-6.60000E+02 9.00000E+01
 -1        93-1.52880E+02-6.60000E+02 9.00000E+01
 -1        94-4.47720E+02-6.60000E+02 9.00000E+01
 -1        95-6.49740E+02-6.60000E+02 9.00000E+01
 -1        96-8.02620E+02-6.60000E+02 9.00000E+01
 -1        97-9.10000E+02-5.67600E+02 1.00000E+01
 -1        98-9.10000E+02-4.35600E+02 1.00000E+01
 -1        99-9.10000E+02-2.32320E+02 1.00000E+01
 -1       100-9.10000E+02 1.25400E+02 1.00000E+01
 -1       101-9.10000E+02 3.89400E+02 1.00000E+01
 -1       102-9.10000E+02 5.71560E+02 1.00000E+01
 -1       103-9.10000E+02-5.53080E+02 9.00000E+01
 -1       104-9.10000E+02-4.07880E+02 9.00000E+01
 -1       105-9.10000E+02-1.86120E+02 9.00000E+01
 -1       106-9.10000E+02 1.35960E+02 9.00000E+01
 -1       107-9.10000E+02 3.99960E+02 9.00000E+01
 -1       108-9.10000E+02 5.63640E+02 9.00000E+01
 -1       109 9.00900E+02-7.40000E+02 1.00000E+01
 -1       110 7.90020E+02-7.40000E+02 1.00000E+01
 -1       111 6.43500E+02-7.40000E+02 1.00000E+01
 -1       112 4.31640E+02-7.40000E+02 1.00000E+01
 -1       113 4.15800E+01-7.40000E+02 1.00000E+01
 -1       114-3.36600E+02-7.40000E+02 1.00000E+01
 -1       115-5.97960E+02-7.40000E+02 1.00000E+01
 -1       116-7.74180E+02-7.40000E+02 1.00000E+01
 -1       117-9.02880E+02-7.40000E+02 1.00000E+01
 -1       118 9.02880E+02-7.40000E+02 9.00000E+01
 -1       119 7.66260E+02-7.40000E+02 9.00000E+01
 -1       120 5.70240E+02-7.40000E+02 9.00000E+01
 -1       121 3.08880E+02-7.40000E+02 9.00000E+01
 -1       122-4.15800E+01-7.40000E+02 9.00000E+01
 -1       123-3.82140E+02-7.40000E+02 9.00000E+01
 -1       124-6.19740E+02-7.40000E+02 9.00000E+01
 -1       125-7.80120E+02-7.40000E+02 9.00000E+01
 -1       126-9.00900E+02-7.40000E+02 9.00000E+01
 -1       127-8.94960E+02 7.40000E+02 9.00000E+01
 -1       128-7.66260E+02 7.40000E+02 9.00000E+01
 -1       129-5.88060E+02 7.40000E+02 9.00000E+01
 -1       130-3.92040E+02 7.40000E+02 9.00000E+01
 -1       131-2.55420E+02 7.40000E+02 9.00000E+01
 -1       132-1.36620E+02 7.40000E+02 9.00000E+01
 -1       133-5.74200E+01 7.40000E+02 9.00000E+01
 -1       134 1.18800E+01 7.40000E+02 9.00000E+01
 -1       135 9.90000E+01 7.40000E+02 9.00000E+01
 -1       136 2.11860E+02 7.40000E+02 9.00000E+01
 -1       137 3.58380E+02 7.40000E+02 9.00000E+01
 -1       138 5.68260E+02 7.40000E+02 9.00000E+01
 -1       139 7.58340E+02 7.40000E+02 9.00000E+01
 -1       140 9.00900E+02 7.40000E+02 9.00000E+01
 -1       141 9.90000E+02 6.40840E+02 9.00000E+01
 -1       142 9.90000E+02 5.28360E+02 9.00000E+01
 -1       143 9.90000E+02 3.65560E+02 9.00000E+01
 -1       144 9.90000E+02 1.13960E+02 9.00000E+01
 -1       145 9.90000E+02-1.77600E+02 9.00000E+01
 -1       146 9.90000E+02-3.84800E+02 9.00000E+01
 -1       147 9.90000E+02-5.26880E+02 9.00000E+01
 -1       148 9.90000E+02-6.34920E+02 9.00000E+01
 -1       149-9.90000E+02-6.23080E+02 9.00000E+01
 -1       150-9.90000E+02-4.64720E+02 9.00000E+01
 -1       151-9.90000E+02-2.36800E+02 9.00000E+01
 -1       152-9.90000E+02 6.66000E+01 9.00000E+01
 -1       153-9.90000E+02 3.46320E+02 9.00000E+01
 -1       154-9.90000E+02 5.12080E+02 9.00000E+01
 -1       155-9.90000E+02 6.36400E+02 9.00000E+01
 -1       156-8.92980E+02 7.40000E+02 1.00000E+01
 -1       157-7.64280E+02 7.40000E+02 1.00000E+01
 -1       158-5.90040E+02 7.40000E+02 1.00000E+01
 -1       159-3.86100E+02 7.40000E+02 1.00000E+01
 -1       160-2.47500E+02 7.40000E+02 1.00000E+01
 -1       161-1.28700E+02 7.40000E+02 1.00000E+01
 -1       162-3.16800E+01 7.40000E+02 1.00000E+01
 -1       163 4.35600E+01 7.40000E+02 1.00000E+01
 -1       164 1.48500E+02 7.40000E+02 1.00000E+01
 -1       165 2.77200E+02 7.40000E+02 1.00000E+01
 -1       166 4.45500E+02 7.40000E+02 1.00000E+01
 -1       167 6.41520E+02 7.40000E+02 1.00000E+01
 -1       168 7.88040E+02 7.40000E+02 1.00000E+01
 -1       169 9.00900E+02 7.40000E+02 1.00000E+01
 -1       170 9.90000E+02 6.34920E+02 1.00000E+01
 -1       171 9.90000E+02 5.04680E+02 1.00000E+01
 -1       172 9.90000E+02 2.76760E+02 1.00000E+01
 -1       173 9.90000E+02-4.14400E+01 1.00000E+01
 -1       174 9.90000E+02-3.41880E+02 1.00000E+01
 -1       175 9.90000E+02-5.13560E+02 1.00000E+01
 -1       176 9.90000E+02-6.30480E+02 1.00000E+01
 -1       177-9.90000E+02-6.31960E+02 1.00000E+01
 -1       178-9.90000E+02-5.12080E+02 1.00000E+01
 -1       179-9.90000E+02-3.46320E+02 1.00000E+01
 -1       180-9.90000E+02-5.47600E+01 1.00000E+01
 -1       181-9.90000E+02 2.76760E+02 1.00000E+01
 -1       182-9.90000E+02 5.09120E+02 1.00000E+01
 -1       183-9.90000E+02 6.36400E+02 1.00000E+01
 -1       184 5.63100E+00 1.50000E+02 7.04000E+01
 -1       185 5.63100E+00 1.50000E+02 3.23000E+01
 -1       186-4.36900E+00 1.50000E+02 3.24000E+01
 -1       187-4.36900E+00 1.50000E+02 7.05000E+01
 -1       188-4.36900E+00 6.16000E+02-1.34550E-13
 -1       189-4.36900E+00 5.65500E+02-1.23337E-13
 -1       190-4.36900E+00 4.98000E+02-1.08349E-13
 -1       191-4.36900E+00 3.98500E+02-8.62558E-14
 -1       192-4.36900E+00 2.95500E+02-6.33852E-14
 -1       193-4.36900E+00 2.25000E+02-4.77310E-14
 -1       194-4.36900E+00 1.80500E+02-3.78501E-14
 -1       195-4.36900E+00 6.15500E+02 1.00000E+02
 -1       196-4.36900E+00 5.64500E+02 1.00000E+02
 -1       197-4.36900E+00 4.95500E+02 1.00000E+02
 -1       198-4.36900E+00 3.94500E+02 1.00000E+02
 -1       199-4.36900E+00 2.98000E+02 1.00000E+02
 -1       200-4.36900E+00 2.26000E+02 1.00000E+02
 -1       201-4.36900E+00 1.81000E+02 1.00000E+02
 -1       202-4.36900E+00 6.50000E+02 3.24000E+01
 -1       203-4.36900E+00 6.50000E+02 7.05000E+01
 -1       204 5.63100E+00 6.15500E+02 1.00000E+02
 -1       205 5.63100E+00 5.64500E+02 1.00000E+02
 -1       206 5.63100E+00 4.95500E+02 1.00000E+02
 -1       207 5.63100E+00 3.94500E+02 1.00000E+02
 -1       208 5.63100E+00 2.98000E+02 1.00000E+02
 -1       209 5.63100E+00 2.26000E+02 1.00000E+02
 -1       210 5.63100E+00 1.81000E+02 1.00000E+02
 -1       211 5.63100E+00 6.16000E+02-1.34555E-13
 -1       212 5.63100E+00 5.65500E+02-1.23342E-13
 -1       213 5.63100E+00 4.98000E+02-1.08353E-13
 -1       214 5.63100E+00 3.98500E+02-8.62601E-14
 -1       215 5.63100E+00 2.95500E+02-6.33895E-14
 -1       216 5.63100E+00 2.25000E+02-4.77353E-14
 -1       217 5.63100E+00 1.80500E+02-3.78543E-14
 -1       218 5.63100E+00 6.50000E+02 7.04000E+01
 -1       219 5.63100E+00 6.50000E+02 3.23000E+01
 -1       220-7.77299E+02 6.50000E+02 1.00000E+02
 -1       221-6.10711E+02 6.50000E+02 1.00000E+02
 -1       222-4.17255E+02 6.50000E+02 1.00000E+02
 -1       223-2.73954E+02 6.50000E+02 1.00000E+02
 -1       224-1.72748E+02 6.50000E+02 1.00000E+02
 -1       225-9.66190E+01 6.50000E+02 1.00000E+02
 -1       226-4.37768E+01 6.50000E+02 1.00000E+02
 -1       227-4.82549E+01 6.50000E+02 0.00000E+00
 -1       228-1.09158E+02 6.50000E+02 0.00000E+00
 -1       229-1.93347E+02 6.50000E+02 0.00000E+00
 -1       230-3.24109E+02 6.50000E+02 0.00000E+00
 -1       231-5.00549E+02 6.50000E+02 0.00000E+00
 -1       232-7.36995E+02 6.50000E+02 0.00000E+00
 -1       233 4.23001E+01 6.50000E+02 1.00000E+02
 -1       234 1.09378E+02 6.50000E+02 1.00000E+02
 -1       235 2.28329E+02 6.50000E+02 1.00000E+02
 -1       236 4.04520E+02 6.50000E+02 1.00000E+02
 -1       237 6.30795E+02 6.50000E+02 1.00000E+02
 -1       238 7.88204E+02 6.50000E+02 1.00000E+02
 -1       239 7.96253E+02 6.50000E+02 0.00000E+00
 -1       240 6.35267E+02 6.50000E+02 0.00000E+00
 -1       241 4.37611E+02 6.50000E+02 0.00000E+00
 -1       242 3.03456E+02 6.50000E+02 0.00000E+00
 -1       243 2.03287E+02 6.50000E+02 0.00000E+00
 -1       244 1.31737E+02 6.50000E+02 0.00000E+00
 -1       245 7.89693E+01 6.50000E+02 0.00000E+00
 -1       246 3.69339E+01 6.50000E+02 0.00000E+00
 -1       247-9.00000E+02-5.42100E+02 1.00000E+02
 -1       248-9.00000E+02-3.97800E+02 1.00000E+02
 -1       249-9.00000E+02-1.80700E+02 1.00000E+02
 -1       250-9.00000E+02 1.30000E+02 1.00000E+02
 -1       251-9.00000E+02 3.88700E+02 1.00000E+02
 -1       252-9.00000E+02 5.53800E+02 1.00000E+02
 -1       253-9.00000E+02 5.20000E+02 0.00000E+00
 -1       254-9.00000E+02 2.84700E+02 0.00000E+00
 -1       255-9.00000E+02-5.07000E+01 0.00000E+00
 -1       256-9.00000E+02-3.57500E+02 0.00000E+00
 -1       257-9.00000E+02-5.30400E+02 0.00000E+00
 -1       258 7.88400E+02-6.50000E+02 1.00000E+02
 -1       259 6.35400E+02-6.50000E+02 1.00000E+02
 -1       260 4.01400E+02-6.50000E+02 1.00000E+02
 -1       261 5.04000E+01-6.50000E+02 1.00000E+02
 -1       262-3.36600E+02-6.50000E+02 1.00000E+02
 -1       263-5.92200E+02-6.50000E+02 1.00000E+02
 -1       264-7.72200E+02-6.50000E+02 1.00000E+02
 -1       265-7.57800E+02-6.50000E+02 0.00000E+00
 -1       266-5.45400E+02-6.50000E+02 0.00000E+00
 -1       267-2.93400E+02-6.50000E+02 0.00000E+00
 -1       268 6.48000E+01-6.50000E+02 0.00000E+00
 -1       269 4.32000E+02-6.50000E+02 0.00000E+00
 -1       270 6.42600E+02-6.50000E+02 0.00000E+00
 -1       271 7.99200E+02-6.50000E+02 0.00000E+00
 -1       272 9.00000E+02 5.51200E+02 1.00000E+02
 -1       273 9.00000E+02 3.86100E+02 1.00000E+02
 -1       274 9.00000E+02 1.24800E+02 1.00000E+02
 -1       275 9.00000E+02-1.85900E+02 1.00000E+02
 -1       276 9.00000E+02-4.00400E+02 1.00000E+02
 -1       277 9.00000E+02-5.44700E+02 1.00000E+02
 -1       278 9.00000E+02-5.29100E+02 0.00000E+00
 -1       279 9.00000E+02-3.54900E+02 0.00000E+00
 -1       280 9.00000E+02-4.55000E+01 0.00000E+00
 -1       281 9.00000E+02 2.88600E+02 0.00000E+00
 -1       282 9.00000E+02 5.21300E+02 0.00000E+00
 -1       283 8.88000E+02-7.50000E+02 0.00000E+00
 -1       284 7.78000E+02-7.50000E+02 0.00000E+00
 -1       285 6.30000E+02-7.50000E+02 0.00000E+00
 -1       286 4.12000E+02-7.50000E+02 0.00000E+00
 -1       287 3.60000E+01-7.50000E+02 0.00000E+00
 -1       288-3.32000E+02-7.50000E+02 0.00000E+00
 -1       289-5.86000E+02-7.50000E+02 0.00000E+00
 -1       290-7.62000E+02-7.50000E+02 0.00000E+00
 -1       291-8.90000E+02-7.50000E+02 0.00000E+00
 -1       292 9.10000E+02-7.50000E+02 1.00000E+02
 -1       293 7.76000E+02-7.50000E+02 1.00000E+02
 -1       294 5.78000E+02-7.50000E+02 1.00000E+02
 -1       295 3.12000E+02-7.50000E+02 1.00000E+02
 -1       296-4.80000E+01-7.50000E+02 1.00000E+02
 -1       297-3.92000E+02-7.50000E+02 1.00000E+02
 -1       298-6.30000E+02-7.50000E+02 1.00000E+02
 -1       299-7.92000E+02-7.50000E+02 1.00000E+02
 -1       300-9.12000E+02-7.50000E+02 1.00000E+02
 -1       301-9.06000E+02 7.50000E+02 1.00000E+02
 -1       302-7.80000E+02 7.50000E+02 1.00000E+02
 -1       303-6.10000E+02 7.50000E+02 1.00000E+02
 -1       304-4.04000E+02 7.50000E+02 1.00000E+02
 -1       305-2.62000E+02 7.50000E+02 1.00000E+02
 -1       306-1.42000E+02 7.50000E+02 1.00000E+02
 -1       307-6.00000E+01 7.50000E+02 1.00000E+02
 -1       308 1.20000E+01 7.50000E+02 1.00000E+02
 -1       309 1.00000E+02 7.50000E+02 1.00000E+02
 -1       310 2.16000E+02 7.50000E+02 1.00000E+02
 -1       311 3.66000E+02 7.50000E+02 1.00000E+02
 -1       312 5.78000E+02 7.50000E+02 1.00000E+02
 -1       313 7.70000E+02 7.50000E+02 1.00000E+02
 -1       314 9.10000E+02 7.50000E+02 1.00000E+02
 -1       315-1.00000E+03-6.34500E+02 1.00000E+02
 -1       316-1.00000E+03-4.75500E+02 1.00000E+02
 -1       317-1.00000E+03-2.43000E+02 1.00000E+02
 -1       318-1.00000E+03 6.75000E+01 1.00000E+02
 -1       319-1.00000E+03 3.51000E+02 1.00000E+02
 -1       320-1.00000E+03 5.22000E+02 1.00000E+02
 -1       321-1.00000E+03 6.46500E+02 1.00000E+02
 -1       322 1.00000E+03 6.39000E+02 1.00000E+02
 -1       323 1.00000E+03 4.90500E+02 1.00000E+02
 -1       324 1.00000E+03 2.79000E+02 1.00000E+02
 -1       325 1.00000E+03 4.50000E+00 1.00000E+02
 -1       326 1.00000E+03-2.67000E+02 1.00000E+02
 -1       327 1.00000E+03-4.72500E+02 1.00000E+02
 -1       328 1.00000E+03-6.18000E+02 1.00000E+02
 -1       329-8.84000E+02 7.50000E+02 0.00000E+00
 -1       330-7.46000E+02 7.50000E+02 0.00000E+00
 -1       331-5.58000E+02 7.50000E+02 0.00000E+00
 -1       332-3.58000E+02 7.50000E+02 0.00000E+00
 -1       333-2.24000E+02 7.50000E+02 0.00000E+00
 -1       334-1.12000E+02 7.50000E+02 0.00000E+00
 -1       335-3.40000E+01 7.50000E+02 0.00000E+00
 -1       336 3.80000E+01 7.50000E+02 0.00000E+00
 -1       337 1.20000E+02 7.50000E+02 0.00000E+00
 -1       338 2.38000E+02 7.50000E+02 0.00000E+00
 -1       339 4.04000E+02 7.50000E+02 0.00000E+00
 -1       340 6.08000E+02 7.50000E+02 0.00000E+00
 -1       341 7.68000E+02 7.50000E+02 0.00000E+00
 -1       342 8.86000E+02 7.50000E+02 0.00000E+00
 -1       343-1.00000E+03-6.36000E+02 0.00000E+00
 -1       344-1.00000E+03-5.16000E+02 0.00000E+00
 -1       345-1.00000E+03-3.54000E+02 0.00000E+00
 -1       346-1.00000E+03-7.35000E+01 0.00000E+00
 -1       347-1.00000E+03 2.65500E+02 0.00000E+00
 -1       348-1.00000E+03 4.99500E+02 0.00000E+00
 -1       349-1.00000E+03 6.34500E+02 0.00000E+00
 -1       350 1.00000E+03 6.36000E+02 0.00000E+00
 -1       351 1.00000E+03 4.86000E+02 0.00000E+00
 -1       352 1.00000E+03 2.68500E+02 0.00000E+00
 -1       353 1.00000E+03-2.55000E+01 0.00000E+00
 -1       354 1.00000E+03-3.19500E+02 0.00000E+00
 -1       355 1.00000E+03-5.05500E+02 0.00000E+00
 -1       356 1.00000E+03-6.43500E+02 0.00000E+00
 -1       357 1.91100E+01 6.60000E+02 4.29721E+01
 -1       358-2.63900E+01 6.60000E+02 5.70279E+01
 -1       359 9.10000E+02-2.63209E+01 7.00272E+01
 -1       360-2.63900E+01 6.92972E+02 9.00000E+01
 -1       361 2.73000E+00 6.92972E+02 9.00000E+01
 -1       362 4.64100E+01 6.92972E+02 9.00000E+01
 -1       363-7.96700E+01 7.00000E+02 9.00000E+01
 -1       364 1.91100E+01 6.92972E+02 1.00000E+01
 -1       365-4.36900E+00 5.90750E+02 4.69564E+01
 -1       366-4.36900E+00 5.23250E+02 4.69564E+01
 -1       367-4.36900E+00 1.89964E+02 5.14500E+01
 -1       368 5.63100E+00 5.90000E+02 5.30436E+01
 -1       369 5.63100E+00 5.21000E+02 5.30436E+01
 -1       370 5.63100E+00 2.03500E+02 6.70279E+01
 -1       371 5.63100E+00 2.02750E+02 3.29721E+01
 -1       372 6.30996E-01 5.96463E+02 1.00000E+02
 -1       373 6.30996E-01 2.53111E+02 1.00000E+02
 -1       374 6.30996E-01 5.37389E+02 1.00000E+02
 -1       375 6.30996E-01 4.52241E+02 1.00000E+02
 -1       376 6.30996E-01 3.41259E+02 1.00000E+02
 -1       377-4.60158E+01 6.50000E+02 5.00000E+01
 -1       378 6.30996E-01 5.96963E+02-1.30323E-13
 -1       379 6.30996E-01 2.52111E+02-5.37509E-14
 -1       380 6.30996E-01 5.38389E+02-1.17317E-13
 -1       381 6.30996E-01 4.54741E+02-9.87437E-14
 -1       382 6.30996E-01 3.38759E+02-7.29907E-14
 -1       383 7.58390E+01 6.50000E+02 5.33857E+01
 -1       384-2.40729E+01 6.82972E+02 1.00000E+02
 -1       385 2.39656E+01 6.82972E+02 1.00000E+02
 -1       386 7.58390E+01 6.96614E+02 1.00000E+02
 -1       387 6.30996E-01 6.75980E+02 1.00000E+02
 -1       388 1.05353E+02 6.96956E+02 0.00000E+00
 -1       389 6.33178E+01 6.96956E+02 0.00000E+00
 -1       390 3.20149E+01 6.96956E+02 0.00000E+00
 -1       391-2.63120E+01 6.82972E+02 0.00000E+00
 -1       392-7.87064E+01 6.96956E+02 0.00000E+00
 -1       393 2.00000E+00 6.89059E+02 0.00000E+00
 -1       394 5.59783E-01 5.03026E+02 5.02535E+01
 -1       395 2.38241E+00 4.27827E+02 4.21582E+01
 -1       396 3.45359E+00 4.49170E+02 6.44021E+01
 -1       397-6.28458E-01 2.14408E+02 6.15196E+01
 -1       398-1.31212E+00 4.31436E+02 4.64620E+01
 -1       399 6.31501E-01 3.36806E+02 4.89798E+01
 -1       400 1.75612E+00 2.49570E+02 3.52827E+01
 -1       401-1.10990E+00 2.71276E+02 5.41536E+01
 -1       402-9.10000E+02 6.60000E+02 5.00000E+01
 -1       403 9.10000E+02 6.60000E+02 5.00000E+01
 -1       404-8.39930E+02 6.60000E+02 1.00000E+01
 -1       405-6.56110E+02 6.60000E+02 1.00000E+01
 -1       406-4.50450E+02 6.60000E+02 1.00000E+01
 -1       407-2.91200E+02 6.60000E+02 1.00000E+01
 -1       408-1.72900E+02 6.60000E+02 1.00000E+01
 -1       409-9.00900E+01 6.60000E+02 1.00000E+01
 -1       410-3.09400E+01 6.60000E+02 1.00000E+01
 -1       411 1.91100E+01 6.60000E+02 1.00000E+01
 -1       412 7.28000E+01 6.60000E+02 1.00000E+01
 -1       413 1.45600E+02 6.60000E+02 1.00000E+01
 -1       414 2.43880E+02 6.60000E+02 1.00000E+01
 -1       415 3.72190E+02 6.60000E+02 1.00000E+01
 -1       416 5.51460E+02 6.60000E+02 1.00000E+01
 -1       417 7.38010E+02 6.60000E+02 1.00000E+01
 -1       418 8.63590E+02 6.60000E+02 1.00000E+01
 -1       419-8.51760E+02 6.60000E+02 9.00000E+01
 -1       420-7.12530E+02 6.60000E+02 9.00000E+01
 -1       421-5.33260E+02 6.60000E+02 9.00000E+01
 -1       422-3.59450E+02 6.60000E+02 9.00000E+01
 -1       423-2.32050E+02 6.60000E+02 9.00000E+01
 -1       424-1.41050E+02 6.60000E+02 9.00000E+01
 -1       425-7.46200E+01 6.60000E+02 9.00000E+01
 -1       426-2.63900E+01 6.60000E+02 9.00000E+01
 -1       427 9.10000E+00 6.60000E+02 9.00000E+01
 -1       428 4.64100E+01 6.60000E+02 9.00000E+01
 -1       429 1.13750E+02 6.60000E+02 9.00000E+01
 -1       430 2.22040E+02 6.60000E+02 9.00000E+01
 -1       431 3.82200E+02 6.60000E+02 9.00000E+01
 -1       432 5.76940E+02 6.60000E+02 9.00000E+01
 -1       433 7.42560E+02 6.60000E+02 9.00000E+01
 -1       434 8.59950E+02 6.60000E+02 9.00000E+01
 -1       435 9.10000E+02-6.60000E+02 5.00000E+01
 -1       436 9.10000E+02 6.14460E+02 1.00000E+01
 -1       437 9.10000E+02 4.77180E+02 1.00000E+01
 -1       438 9.10000E+02 2.52780E+02 1.00000E+01
 -1       439 9.10000E+02-5.80800E+01 1.00000E+01
 -1       440 9.10000E+02-3.36600E+02 1.00000E+01
 -1       441 9.10000E+02-5.02920E+02 1.00000E+01
 -1       442 9.10000E+02-6.14460E+02 1.00000E+01
 -1       443 9.10000E+02 6.11160E+02 9.00000E+01
 -1       444 9.10000E+02 4.79820E+02 9.00000E+01
 -1       445 9.10000E+02 2.64000E+02 9.00000E+01
 -1       446 9.10000E+02-3.03600E+01 9.00000E+01
 -1       447 9.10000E+02-3.00960E+02 9.00000E+01
 -1       448 9.10000E+02-4.82460E+02 9.00000E+01
 -1       449 9.10000E+02-6.07200E+02 9.00000E+01
 -1       450-9.10000E+02-6.60000E+02 5.00000E+01
 -1       451 8.63590E+02-6.60000E+02 1.00000E+01
 -1       452 7.42560E+02-6.60000E+02 1.00000E+01
 -1       453 5.62380E+02-6.60000E+02 1.00000E+01
 -1       454 2.64810E+02-6.60000E+02 1.00000E+01
 -1       455-1.13750E+02-6.60000E+02 1.00000E+01
 -1       456-4.32250E+02-6.60000E+02 1.00000E+01
 -1       457-6.73400E+02-6.60000E+02 1.00000E+01
 -1       458-8.46300E+02-6.60000E+02 1.00000E+01
 -1       459 8.60860E+02-6.60000E+02 9.00000E+01
 -1       460 7.48020E+02-6.60000E+02 9.00000E+01
 -1       461 5.95140E+02-6.60000E+02 9.00000E+01
 -1       462 3.65820E+02-6.60000E+02 9.00000E+01
 -1       463 3.64000E+01-6.60000E+02 9.00000E+01
 -1       464-3.00300E+02-6.60000E+02 9.00000E+01
 -1       465-5.48730E+02-6.60000E+02 9.00000E+01
 -1       466-7.26180E+02-6.60000E+02 9.00000E+01
 -1       467-8.56310E+02-6.60000E+02 9.00000E+01
 -1       468-9.10000E+02-6.13800E+02 1.00000E+01
 -1       469-9.10000E+02-5.01600E+02 1.00000E+01
 -1       470-9.10000E+02-3.33960E+02 1.00000E+01
 -1       471-9.10000E+02-5.34600E+01 1.00000E+01
 -1       472-9.10000E+02 2.57400E+02 1.00000E+01
 -1       473-9.10000E+02 4.80480E+02 1.00000E+01
 -1       474-9.10000E+02 6.15780E+02 1.00000E+01
 -1       475-9.10000E+02-6.06540E+02 9.00000E+01
 -1       476-9.10000E+02-4.80480E+02 9.00000E+01
 -1       477-9.10000E+02-2.97000E+02 9.00000E+01
 -1       478-9.10000E+02-2.50800E+01 9.00000E+01
 -1       479-9.10000E+02 2.67960E+02 9.00000E+01
 -1       480-9.10000E+02 4.81800E+02 9.00000E+01
 -1       481-9.10000E+02 6.11820E+02 9.00000E+01
 -1       482 9.90000E+02-7.40000E+02 5.00000E+01
 -1       483-9.90000E+02-7.40000E+02 5.00000E+01
 -1       484 9.45450E+02-7.40000E+02 1.00000E+01
 -1       485 8.45460E+02-7.40000E+02 1.00000E+01
 -1       486 7.16760E+02-7.40000E+02 1.00000E+01
 -1       487 5.37570E+02-7.40000E+02 1.00000E+01
 -1       488 2.36610E+02-7.40000E+02 1.00000E+01
 -1       489-1.47510E+02-7.40000E+02 1.00000E+01
 -1       490-4.67280E+02-7.40000E+02 1.00000E+01
 -1       491-6.86070E+02-7.40000E+02 1.00000E+01
 -1       492-8.38530E+02-7.40000E+02 1.00000E+01
 -1       493-9.46440E+02-7.40000E+02 1.00000E+01
 -1       494 9.46440E+02-7.40000E+02 9.00000E+01
 -1       495 8.34570E+02-7.40000E+02 9.00000E+01
 -1       496 6.68250E+02-7.40000E+02 9.00000E+01
 -1       497 4.39560E+02-7.40000E+02 9.00000E+01
 -1       498 1.33650E+02-7.40000E+02 9.00000E+01
 -1       499-2.11860E+02-7.40000E+02 9.00000E+01
 -1       500-5.00940E+02-7.40000E+02 9.00000E+01
 -1       501-6.99930E+02-7.40000E+02 9.00000E+01
 -1       502-8.40510E+02-7.40000E+02 9.00000E+01
 -1       503-9.45450E+02-7.40000E+02 9.00000E+01
 -1       504-9.42480E+02 7.40000E+02 9.00000E+01
 -1       505-8.30610E+02 7.40000E+02 9.00000E+01
 -1       506-6.77160E+02 7.40000E+02 9.00000E+01
 -1       507-4.90050E+02 7.40000E+02 9.00000E+01
 -1       508-3.23730E+02 7.40000E+02 9.00000E+01
 -1       509-1.96020E+02 7.40000E+02 9.00000E+01
 -1       510-9.70200E+01 7.40000E+02 9.00000E+01
 -1       511-2.27700E+01 7.40000E+02 9.00000E+01
 -1       512 5.54400E+01 7.40000E+02 9.00000E+01
 -1       513 1.55430E+02 7.40000E+02 9.00000E+01
 -1       514 2.85120E+02 7.40000E+02 9.00000E+01
 -1       515 4.63320E+02 7.40000E+02 9.00000E+01
 -1       516 6.63300E+02 7.40000E+02 9.00000E+01
 -1       517 8.29620E+02 7.40000E+02 9.00000E+01
 -1       518 9.45450E+02 7.40000E+02 9.00000E+01
 -1       519 9.90000E+02 6.90420E+02 9.00000E+01
 -1       520 9.90000E+02 5.84600E+02 9.00000E+01
 -1       521 9.90000E+02 4.46960E+02 9.00000E+01
 -1       522 9.90000E+02 2.39760E+02 9.00000E+01
 -1       523 9.90000E+02-3.18200E+01 9.00000E+01
 -1       524 9.90000E+02-2.81200E+02 9.00000E+01
 -1       525 9.90000E+02-4.55840E+02 9.00000E+01
 -1       526 9.90000E+02-5.80900E+02 9.00000E+01
 -1       527 9.90000E+02-6.87460E+02 9.00000E+01
 -1       528-9.90000E+02-6.81540E+02 9.00000E+01
 -1       529-9.90000E+02-5.43900E+02 9.00000E+01
 -1       530-9.90000E+02-3.50760E+02 9.00000E+01
 -1       531-9.90000E+02-8.51000E+01 9.00000E+01
 -1       532-9.90000E+02 2.06460E+02 9.00000E+01
 -1       533-9.90000E+02 4.29200E+02 9.00000E+01
 -1       534-9.90000E+02 5.74240E+02 9.00000E+01
 -1       535-9.90000E+02 6.88200E+02 9.00000E+01
 -1       536-9.41490E+02 7.40000E+02 1.00000E+01
 -1       537-8.28630E+02 7.40000E+02 1.00000E+01
 -1       538-6.77160E+02 7.40000E+02 1.00000E+01
 -1       539-4.88070E+02 7.40000E+02 1.00000E+01
 -1       540-3.16800E+02 7.40000E+02 1.00000E+01
 -1       541-1.88100E+02 7.40000E+02 1.00000E+01
 -1       542-8.01900E+01 7.40000E+02 1.00000E+01
 -1       543 5.94000E+00 7.40000E+02 1.00000E+01
 -1       544 9.60300E+01 7.40000E+02 1.00000E+01
 -1       545 2.12850E+02 7.40000E+02 1.00000E+01
 -1       546 3.61350E+02 7.40000E+02 1.00000E+01
 -1       547 5.43510E+02 7.40000E+02 1.00000E+01
 -1       548 7.14780E+02 7.40000E+02 1.00000E+01
 -1       549 8.44470E+02 7.40000E+02 1.00000E+01
 -1       550 9.45450E+02 7.40000E+02 1.00000E+01
 -1       551 9.90000E+02 6.87460E+02 1.00000E+01
 -1       552 9.90000E+02 5.69800E+02 1.00000E+01
 -1       553 9.90000E+02 3.90720E+02 1.00000E+01
 -1       554 9.90000E+02 1.17660E+02 1.00000E+01
 -1       555 9.90000E+02-1.91660E+02 1.00000E+01
 -1       556 9.90000E+02-4.27720E+02 1.00000E+01
 -1       557 9.90000E+02-5.72020E+02 1.00000E+01
 -1       558 9.90000E+02-6.85240E+02 1.00000E+01
 -1       559-9.90000E+02-6.85980E+02 1.00000E+01
 -1       560-9.90000E+02-5.72020E+02 1.00000E+01
 -1       561-9.90000E+02-4.29200E+02 1.00000E+01
 -1       562-9.90000E+02-2.00540E+02 1.00000E+01
 -1       563-9.90000E+02 1.11000E+02 1.00000E+01
 -1       564-9.90000E+02 3.92940E+02 1.00000E+01
 -1       565-9.90000E+02 5.72760E+02 1.00000E+01
 -1       566-9.90000E+02 6.88200E+02 1.00000E+01
 -1       567 9.90000E+02 7.40000E+02 5.00000E+01
 -1       568-9.90000E+02 7.40000E+02 5.00000E+01
 -1       569 6.30996E-01 1.50000E+02 1.00000E+02
 -1       570 5.63100E+00 1.50000E+02 8.52000E+01
 -1       571 5.63100E+00 1.50000E+02 5.13500E+01
 -1       572 5.63100E+00 1.50000E+02 1.61500E+01
 -1       573 6.30996E-01 1.50000E+02-3.10777E-14
 -1       574-4.36900E+00 1.50000E+02 1.62000E+01
 -1       575-4.36900E+00 1.50000E+02 5.14500E+01
 -1       576-4.36900E+00 1.50000E+02 8.52500E+01
 -1       577-4.36900E+00 6.33000E+02-1.38325E-13
 -1       578-4.36900E+00 5.90750E+02-1.28944E-13
 -1       579-4.36900E+00 5.31750E+02-1.15843E-13
 -1       580-4.36900E+00 4.48250E+02-9.73025E-14
 -1       581-4.36900E+00 3.47000E+02-7.48205E-14
 -1       582-4.36900E+00 2.60250E+02-5.55581E-14
 -1       583-4.36900E+00 2.02750E+02-4.27905E-14