    1C
    1UUSER                                                              
    1UDATE              10.august.2022                                  
    1UTIME              13:59:26                                        
    1UHOST                                                              
    1UPGM               CalculiX                                        
    1UVERSION           Version 2.19                             
    1UCOMPILETIME       Mon Jan  3 18:43:40 EET 2022                    
    1UDIR                                                               
    1UDBN                                                               
    1UMAT    1MATERIALSOLID                                             
    2C                           316                                     1
 -1         1 0.00000E+00 0.00000E+00 1.00000E+01
 -1         2 0.00000E+00 0.00000E+00 0.00000E+00
 -1         3 0.00000E+00 5.00000E+01 1.00000E+01
 -1         4 0.00000E+00 5.00000E+01 0.00000E+00
 -1         5 6.00000E+02 0.00000E+00 1.00000E+01
 -1         6 6.00000E+02 0.00000E+00 0.00000E+00
 -1         7 6.00000E+02 5.00000E+01 1.00000E+01
 -1         8 6.00000E+02 5.00000E+01 0.00000E+00
 -1         9 0.00000E+00 0.00000E+00 5.00000E+00
 -1        10 0.00000E+00 2.50000E+01 1.00000E+01
 -1        11 0.00000E+00 5.00000E+01 5.00000E+00
 -1        12 0.00000E+00 2.50000E+01 0.00000E+00
 -1        13 6.00000E+02 0.00000E+00 5.00000E+00
 -1        14 6.00000E+02 2.50000E+01 1.00000E+01
 -1        15 6.00000E+02 5.00000E+01 5.00000E+00
 -1        16 6.00000E+02 2.50000E+01 0.00000E+00
 -1        17 6.00000E+01 0.00000E+00 0.00000E+00
 -1        18 1.20000E+02 0.00000E+00 0.00000E+00
 -1        19 1.80000E+02 0.00000E+00 0.00000E+00
 -1        20 2.40000E+02 0.00000E+00 0.00000E+00
 -1        21 3.00000E+02 0.00000E+00 0.00000E+00
 -1        22 3.60000E+02 0.00000E+00 0.00000E+00
 -1        23 4.20000E+02 0.00000E+00 0.00000E+00
 -1        24 4.80000E+02 0.00000E+00 0.00000E+00
 -1        25 5.40000E+02 0.00000E+00 0.00000E+00
 -1        26 3.00000E+01 0.00000E+00 0.00000E+00
 -1        27 9.00000E+01 0.00000E+00 0.00000E+00
 -1        28 1.50000E+02 0.00000E+00 0.00000E+00
 -1        29 2.10000E+02 0.00000E+00 0.00000E+00
 -1        30 2.70000E+02 0.00000E+00 0.00000E+00
 -1        31 3.30000E+02 0.00000E+00 0.00000E+00
 -1        32 3.90000E+02 0.00000E+00 0.00000E+00
 -1        33 4.50000E+02 0.00000E+00 0.00000E+00
 -1        34 5.10000E+02 0.00000E+00 0.00000E+00
 -1        35 5.70000E+02 0.00000E+00 0.00000E+00
 -1        36 6.00000E+01 0.00000E+00 1.00000E+01
 -1        37 1.20000E+02 0.00000E+00 1.00000E+01
 -1        38 1.80000E+02 0.00000E+00 1.00000E+01
 -1        39 2.40000E+02 0.00000E+00 1.00000E+01
 -1        40 3.00000E+02 0.00000E+00 1.00000E+01
 -1        41 3.60000E+02 0.00000E+00 1.00000E+01
 -1        42 4.20000E+02 0.00000E+00 1.00000E+01
 -1        43 4.80000E+02 0.00000E+00 1.00000E+01
 -1        44 5.40000E+02 0.00000E+00 1.00000E+01
 -1        45 3.00000E+01 0.00000E+00 1.00000E+01
 -1        46 9.00000E+01 0.00000E+00 1.00000E+01
 -1        47 1.50000E+02 0.00000E+00 1.00000E+01
 -1        48 2.10000E+02 0.00000E+00 1.00000E+01
 -1        49 2.70000E+02 0.00000E+00 1.00000E+01
 -1        50 3.30000E+02 0.00000E+00 1.00000E+01
 -1        51 3.90000E+02 0.00000E+00 1.00000E+01
 -1        52 4.50000E+02 0.00000E+00 1.00000E+01
 -1        53 5.10000E+02 0.00000E+00 1.00000E+01
 -1        54 5.70000E+02 0.00000E+00 1.00000E+01
 -1        55 6.00000E+01 5.00000E+01 0.00000E+00
 -1        56 1.20000E+02 5.00000E+01 0.00000E+00
 -1        57 1.80000E+02 5.00000E+01 0.00000E+00
 -1        58 2.40000E+02 5.00000E+01 0.00000E+00
 -1        59 3.00000E+02 5.00000E+01 0.00000E+00
 -1        60 3.60000E+02 5.00000E+01 0.00000E+00
 -1        61 4.20000E+02 5.00000E+01 0.00000E+00
 -1        62 4.80000E+02 5.00000E+01 0.00000E+00
 -1        63 5.40000E+02 5.00000E+01 0.00000E+00
 -1        64 3.00000E+01 5.00000E+01 0.00000E+00
 -1        65 9.00000E+01 5.00000E+01 0.00000E+00
 -1        66 1.50000E+02 5.00000E+01 0.00000E+00
 -1        67 2.10000E+02 5.00000E+01 0.00000E+00
 -1        68 2.70000E+02 5.00000E+01 0.00000E+00
 -1        69 3.30000E+02 5.00000E+01 0.00000E+00
 -1        70 3.90000E+02 5.00000E+01 0.00000E+00
 -1        71 4.50000E+02 5.00000E+01 0.00000E+00
 -1        72 5.10000E+02 5.00000E+01 0.00000E+00
 -1        73 5.70000E+02 5.00000E+01 0.00000E+00
 -1        74 6.00000E+01 5.00000E+01 1.00000E+01
 -1        75 1.20000E+02 5.00000E+01 1.00000E+01
 -1        76 1.80000E+02 5.00000E+01 1.00000E+01
 -1        77 2.40000E+02 5.00000E+01 1.00000E+01
 -1        78 3.00000E+02 5.00000E+01 1.00000E+01
 -1        79 3.60000E+02 5.00000E+01 1.00000E+01
 -1        80 4.20000E+02 5.00000E+01 1.00000E+01
 -1        81 4.80000E+02 5.00000E+01 1.00000E+01
 -1        82 5.40000E+02 5.00000E+01 1.00000E+01
 -1        83 3.00000E+01 5.00000E+01 1.00000E+01
 -1        84 9.00000E+01 5.00000E+01 1.00000E+01
 -1        85 1.50000E+02 5.00000E+01 1.00000E+01
 -1        86 2.10000E+02 5.00000E+01 1.00000E+01
 -1        87 2.70000E+02 5.00000E+01 1.00000E+01
 -1        88 3.30000E+02 5.00000E+01 1.00000E+01
 -1        89 3.90000E+02 5.00000E+01 1.00000E+01
 -1        90 4.50000E+02 5.00000E+01 1.00000E+01
 -1        91 5.10000E+02 5.00000E+01 1.00000E+01
 -1        92 5.70000E+02 5.00000E+01 1.00000E+01
 -1        93 0.00000E+00 2.50000E+01 5.00000E+00
 -1        94 6.00000E+02 2.50000E+01 5.00000E+00
 -1        95 3.00000E+01 0.00000E+00 5.00000E+00
 -1        96 6.00000E+01 0.00000E+00 5.00000E+00
 -1        97 5.70000E+02 0.00000E+00 5.00000E+00
 -1        98 5.40000E+02 0.00000E+00 5.00000E+00
 -1        99 9.00000E+01 0.00000E+00 5.00000E+00
 -1       100 1.20000E+02 0.00000E+00 5.00000E+00
 -1       101 1.50000E+02 0.00000E+00 5.00000E+00
 -1       102 1.80000E+02 0.00000E+00 5.00000E+00
 -1       103 2.10000E+02 0.00000E+00 5.00000E+00
 -1       104 2.40000E+02 0.00000E+00 5.00000E+00
 -1       105 2.70000E+02 0.00000E+00 5.00000E+00
 -1       106 3.00000E+02 0.00000E+00 5.00000E+00
 -1       107 3.30000E+02 0.00000E+00 5.00000E+00
 -1       108 3.60000E+02 0.00000E+00 5.00000E+00
 -1       109 3.90000E+02 0.00000E+00 5.00000E+00
 -1       110 4.50000E+02 0.00000E+00 5.00000E+00
 -1       111 4.80000E+02 0.00000E+00 5.00000E+00
 -1       112 4.20000E+02 0.00000E+00 5.00000E+00
 -1       113 5.10000E+02 0.00000E+00 5.00000E+00
 -1       114 3.00000E+01 5.00000E+01 5.00000E+00
 -1       115 6.00000E+01 5.00000E+01 5.00000E+00
 -1       116 5.70000E+02 5.00000E+01 5.00000E+00
 -1       117 5.40000E+02 5.00000E+01 5.00000E+00
 -1       118 1.20000E+02 5.00000E+01 5.00000E+00
 -1       119 9.00000E+01 5.00000E+01 5.00000E+00
 -1       120 1.80000E+02 5.00000E+01 5.00000E+00
 -1       121 1.50000E+02 5.00000E+01 5.00000E+00
 -1       122 2.10000E+02 5.00000E+01 5.00000E+00
 -1       123 2.40000E+02 5.00000E+01 5.00000E+00
 -1       124 3.00000E+02 5.00000E+01 5.00000E+00
 -1       125 2.70000E+02 5.00000E+01 5.00000E+00
 -1       126 3.60000E+02 5.00000E+01 5.00000E+00
 -1       127 3.30000E+02 5.00000E+01 5.00000E+00
 -1       128 3.90000E+02 5.00000E+01 5.00000E+00
 -1       129 4.50000E+02 5.00000E+01 5.00000E+00
 -1       130 4.80000E+02 5.00000E+01 5.00000E+00
 -1       131 4.20000E+02 5.00000E+01 5.00000E+00
 -1       132 5.10000E+02 5.00000E+01 5.00000E+00
 -1       133 5.70000E+02 2.50000E+01 0.00000E+00
 -1       134 5.10000E+02 2.50000E+01 0.00000E+00
 -1       135 9.00000E+01 2.50000E+01 0.00000E+00
 -1       136 3.00000E+01 2.50000E+01 0.00000E+00
 -1       137 3.90000E+02 2.50000E+01 0.00000E+00
 -1       138 1.50000E+02 2.50000E+01 0.00000E+00
 -1       139 2.70000E+02 2.50000E+01 0.00000E+00
 -1       140 3.30000E+02 2.50000E+01 0.00000E+00
 -1       141 4.50000E+02 2.50000E+01 0.00000E+00
 -1       142 2.10000E+02 2.50000E+01 0.00000E+00
 -1       143 1.50000E+01 3.75000E+01 0.00000E+00
 -1       144 1.50000E+01 1.25000E+01 0.00000E+00
 -1       145 4.50000E+01 1.25000E+01 0.00000E+00
 -1       146 4.50000E+01 3.75000E+01 0.00000E+00
 -1       147 5.85000E+02 1.25000E+01 0.00000E+00
 -1       148 5.85000E+02 3.75000E+01 0.00000E+00
 -1       149 5.55000E+02 1.25000E+01 0.00000E+00
 -1       150 5.55000E+02 3.75000E+01 0.00000E+00
 -1       151 7.50000E+01 1.25000E+01 0.00000E+00
 -1       152 1.05000E+02 1.25000E+01 0.00000E+00
 -1       153 6.00000E+01 2.50000E+01 0.00000E+00
 -1       154 7.50000E+01 3.75000E+01 0.00000E+00
 -1       155 1.35000E+02 1.25000E+01 0.00000E+00
 -1       156 1.65000E+02 1.25000E+01 0.00000E+00
 -1       157 1.20000E+02 2.50000E+01 0.00000E+00
 -1       158 1.05000E+02 3.75000E+01 0.00000E+00
 -1       159 1.35000E+02 3.75000E+01 0.00000E+00
 -1       160 1.95000E+02 1.25000E+01 0.00000E+00
 -1       161 2.25000E+02 1.25000E+01 0.00000E+00
 -1       162 1.80000E+02 2.50000E+01 0.00000E+00
 -1       163 1.65000E+02 3.75000E+01 0.00000E+00
 -1       164 1.95000E+02 3.75000E+01 0.00000E+00
 -1       165 2.55000E+02 1.25000E+01 0.00000E+00
 -1       166 2.85000E+02 1.25000E+01 0.00000E+00
 -1       167 2.40000E+02 2.50000E+01 0.00000E+00
 -1       168 2.55000E+02 3.75000E+01 0.00000E+00
 -1       169 2.25000E+02 3.75000E+01 0.00000E+00
 -1       170 3.15000E+02 1.25000E+01 0.00000E+00
 -1       171 3.45000E+02 1.25000E+01 0.00000E+00
 -1       172 3.00000E+02 2.50000E+01 0.00000E+00
 -1       173 2.85000E+02 3.75000E+01 0.00000E+00
 -1       174 3.15000E+02 3.75000E+01 0.00000E+00
 -1       175 3.75000E+02 1.25000E+01 0.00000E+00
 -1       176 4.05000E+02 1.25000E+01 0.00000E+00
 -1       177 3.60000E+02 2.50000E+01 0.00000E+00
 -1       178 3.75000E+02 3.75000E+01 0.00000E+00
 -1       179 3.45000E+02 3.75000E+01 0.00000E+00
 -1       180 4.35000E+02 1.25000E+01 0.00000E+00
 -1       181 4.65000E+02 1.25000E+01 0.00000E+00
 -1       182 4.20000E+02 2.50000E+01 0.00000E+00
 -1       183 4.05000E+02 3.75000E+01 0.00000E+00
 -1       184 4.35000E+02 3.75000E+01 0.00000E+00
 -1       185 4.95000E+02 1.25000E+01 0.00000E+00
 -1       186 5.25000E+02 1.25000E+01 0.00000E+00
 -1       187 4.80000E+02 2.50000E+01 0.00000E+00
 -1       188 4.95000E+02 3.75000E+01 0.00000E+00
 -1       189 4.65000E+02 3.75000E+01 0.00000E+00
 -1       190 5.40000E+02 2.50000E+01 0.00000E+00
 -1       191 5.25000E+02 3.75000E+01 0.00000E+00
 -1       192 5.70000E+02 2.50000E+01 1.00000E+01
 -1       193 5.10000E+02 2.50000E+01 1.00000E+01
 -1       194 3.00000E+01 2.50000E+01 1.00000E+01
 -1       195 9.00000E+01 2.50000E+01 1.00000E+01
 -1       196 3.90000E+02 2.50000E+01 1.00000E+01
 -1       197 1.50000E+02 2.50000E+01 1.00000E+01
 -1       198 2.70000E+02 2.50000E+01 1.00000E+01
 -1       199 3.30000E+02 2.50000E+01 1.00000E+01
 -1       200 4.50000E+02 2.50000E+01 1.00000E+01
 -1       201 2.10000E+02 2.50000E+01 1.00000E+01
 -1       202 1.50000E+01 1.25000E+01 1.00000E+01
 -1       203 1.50000E+01 3.75000E+01 1.00000E+01
 -1       204 4.50000E+01 1.25000E+01 1.00000E+01
 -1       205 4.50000E+01 3.75000E+01 1.00000E+01
 -1       206 5.85000E+02 3.75000E+01 1.00000E+01
 -1       207 5.85000E+02 1.25000E+01 1.00000E+01
 -1       208 5.55000E+02 1.25000E+01 1.00000E+01
 -1       209 5.55000E+02 3.75000E+01 1.00000E+01
 -1       210 1.05000E+02 1.25000E+01 1.00000E+01
 -1       211 7.50000E+01 1.25000E+01 1.00000E+01
 -1       212 6.00000E+01 2.50000E+01 1.00000E+01
 -1       213 7.50000E+01 3.75000E+01 1.00000E+01
 -1       214 1.65000E+02 1.25000E+01 1.00000E+01
 -1       215 1.35000E+02 1.25000E+01 1.00000E+01
 -1       216 1.05000E+02 3.75000E+01 1.00000E+01
 -1       217 1.20000E+02 2.50000E+01 1.00000E+01
 -1       218 1.35000E+02 3.75000E+01 1.00000E+01
 -1       219 2.25000E+02 1.25000E+01 1.00000E+01
 -1       220 1.95000E+02 1.25000E+01 1.00000E+01
 -1       221 1.65000E+02 3.75000E+01 1.00000E+01
 -1       222 1.80000E+02 2.50000E+01 1.00000E+01
 -1       223 1.95000E+02 3.75000E+01 1.00000E+01
 -1       224 2.85000E+02 1.25000E+01 1.00000E+01
 -1       225 2.55000E+02 1.25000E+01 1.00000E+01
 -1       226 2.55000E+02 3.75000E+01 1.00000E+01
 -1       227 2.40000E+02 2.50000E+01 1.00000E+01
 -1       228 2.25000E+02 3.75000E+01 1.00000E+01
 -1       229 3.45000E+02 1.25000E+01 1.00000E+01
 -1       230 3.15000E+02 1.25000E+01 1.00000E+01
 -1       231 2.85000E+02 3.75000E+01 1.00000E+01
 -1       232 3.00000E+02 2.50000E+01 1.00000E+01
 -1       233 3.15000E+02 3.75000E+01 1.00000E+01
 -1       234 4.05000E+02 1.25000E+01 1.00000E+01
 -1       235 3.75000E+02 1.25000E+01 1.00000E+01
 -1       236 3.75000E+02 3.75000E+01 1.00000E+01
 -1       237 3.60000E+02 2.50000E+01 1.00000E+01
 -1       238 3.45000E+02 3.75000E+01 1.00000E+01
 -1       239 4.65000E+02 1.25000E+01 1.00000E+01
 -1       240 4.35000E+02 1.25000E+01 1.00000E+01
 -1       241 4.05000E+02 3.75000E+01 1.00000E+01
 -1       242 4.20000E+02 2.50000E+01 1.00000E+01
 -1       243 4.35000E+02 3.75000E+01 1.00000E+01
 -1       244 5.25000E+02 1.25000E+01 1.00000E+01
 -1       245 4.95000E+02 1.25000E+01 1.00000E+01
 -1       246 4.95000E+02 3.75000E+01 1.00000E+01
 -1       247 4.80000E+02 2.50000E+01 1.00000E+01
 -1       248 4.65000E+02 3.75000E+01 1.00000E+01
 -1       249 5.40000E+02 2.50000E+01 1.00000E+01
 -1       250 5.25000E+02 3.75000E+01 1.00000E+01
 -1       251 9.00000E+01 8.33333E+00 5.00000E+00
 -1       252 7.50000E+01 4.16667E+00 7.50000E+00
 -1       253 7.50000E+01 4.16667E+00 2.50000E+00
 -1       254 1.05000E+02 4.16667E+00 7.50000E+00
 -1       255 1.05000E+02 4.16667E+00 2.50000E+00
 -1       256 9.00000E+01 2.50000E+01 5.00000E+00
 -1       257 7.50000E+01 1.25000E+01 5.00000E+00
 -1       258 9.00000E+01 1.66667E+01 2.50000E+00
 -1       259 9.00000E+01 1.66667E+01 7.50000E+00
 -1       260 5.55000E+02 3.75000E+01 5.00000E+00
 -1       261 5.70000E+02 2.50000E+01 5.00000E+00
 -1       262 5.85000E+02 3.75000E+01 5.00000E+00
 -1       263 7.50000E+01 3.75000E+01 5.00000E+00
 -1       264 1.05000E+02 3.75000E+01 5.00000E+00
 -1       265 1.50000E+01 3.75000E+01 5.00000E+00
 -1       266 4.50000E+01 3.75000E+01 5.00000E+00
 -1       267 3.00000E+01 2.50000E+01 5.00000E+00
 -1       268 3.45000E+02 1.25000E+01 5.00000E+00
 -1       269 3.15000E+02 1.25000E+01 5.00000E+00
 -1       270 3.30000E+02 2.50000E+01 5.00000E+00
 -1       271 3.15000E+02 3.75000E+01 5.00000E+00
 -1       272 3.45000E+02 3.75000E+01 5.00000E+00
 -1       273 3.90000E+02 2.50000E+01 5.00000E+00
 -1       274 3.75000E+02 1.25000E+01 5.00000E+00
 -1       275 4.05000E+02 1.25000E+01 5.00000E+00
 -1       276 5.25000E+02 1.25000E+01 5.00000E+00
 -1       277 5.10000E+02 2.50000E+01 5.00000E+00
 -1       278 4.95000E+02 1.25000E+01 5.00000E+00
 -1       279 4.95000E+02 3.75000E+01 5.00000E+00
 -1       280 5.25000E+02 3.75000E+01 5.00000E+00
 -1       281 5.55000E+02 1.25000E+01 5.00000E+00
 -1       282 5.85000E+02 1.25000E+01 5.00000E+00
 -1       283 1.35000E+02 3.75000E+01 5.00000E+00
 -1       284 1.65000E+02 3.75000E+01 5.00000E+00
 -1       285 1.50000E+02 2.50000E+01 5.00000E+00
 -1       286 2.55000E+02 1.25000E+01 5.00000E+00
 -1       287 2.85000E+02 1.25000E+01 5.00000E+00
 -1       288 2.70000E+02 2.50000E+01 5.00000E+00
 -1       289 2.25000E+02 1.25000E+01 5.00000E+00
 -1       290 1.95000E+02 1.25000E+01 5.00000E+00
 -1       291 2.10000E+02 2.50000E+01 5.00000E+00
 -1       292 1.95000E+02 3.75000E+01 5.00000E+00
 -1       293 2.25000E+02 3.75000E+01 5.00000E+00
 -1       294 1.65000E+02 1.25000E+01 5.00000E+00
 -1       295 1.35000E+02 1.25000E+01 5.00000E+00
 -1       296 2.55000E+02 3.75000E+01 5.00000E+00
 -1       297 2.85000E+02 3.75000E+01 5.00000E+00
 -1       298 4.50000E+01 1.25000E+01 5.00000E+00
 -1       299 1.50000E+01 1.25000E+01 5.00000E+00
 -1       300 4.05000E+02 3.75000E+01 5.00000E+00
 -1       301 3.75000E+02 3.75000E+01 5.00000E+00
 -1       302 4.65000E+02 3.75000E+01 5.00000E+00
 -1       303 4.35000E+02 3.75000E+01 5.00000E+00
 -1       304 4.50000E+02 2.50000E+01 5.00000E+00
 -1       305 4.35000E+02 1.25000E+01 5.00000E+00
 -1       306 4.65000E+02 1.25000E+01 5.00000E+00
 -1       307 1.05000E+02 1.25000E+01 5.00000E+00
 -1       308 4.20000E+02 2.50000E+01 5.00000E+00
 -1       309 1.20000E+02 2.50000E+01 5.00000E+00
 -1       310 3.60000E+02 2.50000E+01 5.00000E+00
 -1       311 5.40000E+02 2.50000E+01 5.00000E+00
 -1       312 6.00000E+01 2.50000E+01 5.00000E+00
 -1       313 1.80000E+02 2.50000E+01 5.00000E+00
 -1       314 2.40000E+02 2.50000E+01 5.00000E+00
 -1       315 3.00000E+02 2.50000E+01 5.00000E+00
 -1       316 4.80000E+02 2.50000E+01 5.00000E+00
 -3
    3C                           125                                     1
 -1       173    6    0    1
 -2        17        36        37       251        96        46        99       253       252       254
 -1       174    6    0    1
 -2        37        18        17       251       100        27        99       254       255       253
 -1       175    6    0    1
 -2        36       135       195       251       257       256       211       252       258       259
 -1       176    6    0    1
 -2       192        82         7       133       209        92       206       261       260       262
 -1       177    6    0    1
 -2        75        74       135       195        84       263       264       216       213       256
 -1       178    6    0    1
 -2        55       194         4       136       266       265        64       146       267       143
 -1       179    6    0    1
 -2        21       199        22       140       269       268        31       170       270       171
 -1       180    6    0    1
 -2        60       199        59       140       272       271        69       179       270       174
 -1       181    6    0    1
 -2        41       196        42       137       235       234        51       274       273       275
 -1       182    6    0    1
 -2       193        44        43       134       244        53       245       277       276       278
 -1       183    6    0    1
 -2        82        81       134       193        91       279       280       250       246       277
 -1       184    6    0    1
 -2         6       133        44       192       147       281        97       282       261       208
 -1       185    6    0    1
 -2       138        76        75       197       284        85       283       285       221       218
 -1       186    6    0    1
 -2        40       139        39       198       287       286        49       224       288       225
 -1       187    6    0    1
 -2       142        38        39       201       290        48       289       291       220       219
 -1       188    6    0    1
 -2       142        77        76       201       293        86       292       291       228       223
 -1       189    6    0    1
 -2        37        38       138       197        47       294       295       215       214       285
 -1       190    6    0    1
 -2       198       139        77        78       288       296       226       231       297        87
 -1       191    6    0    1
 -2        17       136         2       194       145       144        26       298       267       299
 -1       192    6    0    1
 -2        61       196        79       137       300       236       128       183       273       301
 -1       193    6    0    1
 -2        61        62       200       141        71       302       303       184       189       304
 -1       194    6    0    1
 -2       200        23       141        24       305       180       304       306        33       181
 -1       195    6    0    1
 -2        18       195       135       251       307       256       152       255       259       258
 -1       196    6    0    1
 -2        36        17       135       251        96       151       257       252       253       258
 -1       197    6    0    1
 -2        62        82       134        63       132       280       188        72       117       191
 -1       198    6    0    1
 -2        25        24        44       134        34       113        98       186       185       276
 -1       199    6    0    1
 -2         6        44         5       192        97        54        13       282       208       207
 -1       200    6    0    1
 -2       133         8        82         7       148       116       260       262        15        92
 -1       201    6    0    1
 -2         6        44       133        25        97       281       147        35        98       149
 -1       202    6    0    1
 -2        63         8        82       133        73       116       117       150       148       260
 -1       203    6    0    1
 -2        75       135        74        55       264       263        84       119       154       115
 -1       204    6    0    1
 -2       199        59        79        60       271       127       238       272        69       126
 -1       205    6    0    1
 -2        21        22       199        41        31       268       269       107       108       229
 -1       206    6    0    1
 -2         1        36         2       194        45        95         9       202       204       299
 -1       207    6    0    1
 -2       194         3        55         4       203       114       266       265        11        64
 -1       208    6    0    1
 -2       194        55         3        74       266       114       203       205       115        83
 -1       209    6    0    1
 -2        81        61       200        80       129       303       248        90       131       243
 -1       210    6    0    1
 -2       200        43        42        23       239        52       240       305       110       112
 -1       211    6    0    1
 -2       137        41        23        42       274       109       176       275        51       112
 -1       212    6    0    1
 -2        79        60        61       137       126        70       128       301       178       183
 -1       213    6    0    1
 -2        80       196        79        61       241       236        89       131       300       128
 -1       214    6    0    1
 -2       137        23        41        22       176       109       274       175        32       108
 -1       215    6    0    1
 -2        62        81       134        82       130       279       188       132        91       280
 -1       216    6    0    1
 -2       134        24        44        43       185       113       276       278       111        53
 -1       217    6    0    1
 -2       142        19        39        38       160       103       289       290       102        48
 -1       218    6    0    1
 -2        40        39       139        20        49       286       287       105       104       165
 -1       219    6    0    1
 -2       138        56        76        57       159       121       284       163        66       120
 -1       220    6    0    1
 -2        76        57        77       142       120       122        86       292       164       293
 -1       221    6    0    1
 -2       138        76        56        75       284       121       159       283        85       118
 -1       222    6    0    1
 -2        18       138        38        19       155       294       101        28       156       102
 -1       223    6    0    1
 -2        37       138        38        18       295       294        47       100       155       101
 -1       224    6    0    1
 -2       142        39        19        20       289       103       160       161       104        29
 -1       225    6    0    1
 -2       142        57        77        58       164       122       293       169        67       123
 -1       226    6    0    1
 -2       194        36         2        17       204        95       299       298        96        26
 -1       227    6    0    1
 -2       135        55        75        56       154       119       264       158        65       118
 -1       228    6    0    1
 -2        77       139        58        78       296       168       123        87       297       125
 -1       229    6    0    1
 -2        78       139        58        59       297       168       125       124       173        68
 -1       230    6    0    1
 -2        40        20       139        21       105       165       287       106        30       166
 -1       231    6    0    1
 -2       199        79        59        78       238       127       271       233        88       124
 -1       232    6    0    1
 -2        40       199        41        21       230       229        50       106       269       107
 -1       233    6    0    1
 -2        43        23       200        24       110       305       239       111        33       306
 -1       234    6    0    1
 -2        61       200        62        81       303       302        71       129       248       130
 -1       235    6    0    1
 -2        37       195        18       251       210       307       100       254       259       255
 -1       236    6    0    1
 -2        22       199        60       140       268       272       177       171       270       179
 -1       237    6    0    1
 -2       135       195        74        36       256       213       263       257       211       212
 -1       238    6    0    1
 -2         2       136         4       194       144       143        12       299       267       265
 -1       239    6    0    1
 -2        61        42       196       137       308       234       300       183       275       273
 -1       240    6    0    1
 -2         7         6       192       133        94       282       206       262       147       261
 -1       241    6    0    1
 -2       138       197        75        37       285       218       283       295       215       217
 -1       242    6    0    1
 -2       195       135        75        18       256       264       216       307       152       309
 -1       243    6    0    1
 -2        77       142        39       201       293       289       227       228       291       219
 -1       244    6    0    1
 -2        77        39       139       198       227       286       296       226       225       288
 -1       245    6    0    1
 -2        38        76       138       197       222       284       294       214       221       285
 -1       246    6    0    1
 -2        38       142        76       201       290       292       222       220       291       223
 -1       247    6    0    1
 -2        81        43       134       193       247       278       279       246       245       277
 -1       248    6    0    1
 -2        55        17       194       136       153       298       266       146       145       267
 -1       249    6    0    1
 -2        79        41       137       196       237       274       301       236       235       273
 -1       250    6    0    1
 -2        21        59       199       140       172       271       269       170       174       270
 -1       251    6    0    1
 -2        78       139        40       198       297       287       232       231       288       224
 -1       252    6    0    1
 -2        61       200        23       141       303       305       182       184       304       180
 -1       253    6    0    1
 -2       200       141        62        24       304       189       302       306       181       187
 -1       254    6    0    1
 -2        44        82       134       193       249       280       276       244       250       277
 -1       255    6    0    1
 -2        44        82       192       133       249       209       208       281       260       261
 -1       256    6    0    1
 -2       137        22        79        60       175       310       301       178       177       126
 -1       257    6    0    1
 -2        22        60       199        79       177       272       268       310       126       238
 -1       258    6    0    1
 -2        80        42       196        61       242       234       241       131       308       300
 -1       259    6    0    1
 -2        42        80       200        61       242       243       240       308       131       303
 -1       260    6    0    1
 -2        44       134        63        25       276       191       311        98       186       190
 -1       261    6    0    1
 -2         7       192         6         5       206       282        94        14       207        13
 -1       262    6    0    1
 -2       133        44        63        25       281       311       150       149        98       190
 -1       263    6    0    1
 -2         1         2         3       194         9        93        10       202       299       203
 -1       264    6    0    1
 -2       194         2         3         4       299        93       203       265        12        11
 -1       265    6    0    1
 -2        36        55       194        74       312       266       204       212       115       205
 -1       266    6    0    1
 -2       135        74        55        36       263       115       154       257       212       312
 -1       267    6    0    1
 -2       199        79        41        22       238       237       229       268       310       108
 -1       268    6    0    1
 -2       137        61        42        23       183       308       275       176       182       112
 -1       269    6    0    1
 -2        61        23       200        42       182       305       303       308       112       240
 -1       270    6    0    1
 -2        79       137        41        22       301       274       237       310       175       108
 -1       271    6    0    1
 -2        63        82       134        44       117       280       191       311       249       276
 -1       272    6    0    1
 -2       133        63        44        82       150       311       281       260       117       249