    1C
    1UUSER                                                              
    1UDATE              30.may.2022                                     
    1UTIME              16:03:02                                        
    1UHOST                                                              
    1UPGM               CalculiX                                        
    1UVERSION           Version 2.17                             
    1UCOMPILETIME       Thu Jul 23 21:43:50 CEST 2020                    
    1UDIR                                                               
    1UDBN                                                               
    1UMAT    1MATERIALSOLID                                             
    2C                          2339                                     1
 -1         1 9.10000E+02 6.60000E+02 9.00000E+01
 -1         2 9.10000E+02-6.60000E+02 9.00000E+01
 -1         3-9.10000E+02 6.60000E+02 9.00000E+01
 -1         4-9.10000E+02-6.60000E+02 9.00000E+01
 -1         5 9.10000E+02 6.60000E+02 1.00000E+01
 -1         6 9.10000E+02-6.60000E+02 1.00000E+01
 -1         7-9.10000E+02 6.60000E+02 1.00000E+01
 -1         8-9.10000E+02-6.60000E+02 1.00000E+01
 -1         9 9.90000E+02-7.40000E+02 9.00000E+01
 -1        10 9.90000E+02-7.40000E+02 1.00000E+01
 -1        11-9.90000E+02-7.40000E+02 9.00000E+01
 -1        12-9.90000E+02-7.40000E+02 1.00000E+01
 -1        13 9.90000E+02 7.40000E+02 9.00000E+01
 -1        14 9.90000E+02 7.40000E+02 1.00000E+01
 -1        15-9.90000E+02 7.40000E+02 9.00000E+01
 -1        16-9.90000E+02 7.40000E+02 1.00000E+01
 -1        17 5.63100E+00 1.50000E+02 1.00000E+02
 -1        18-4.36900E+00 1.50000E+02 1.00000E+02
 -1        19-4.36900E+00 1.50000E+02-3.10000E-14
 -1        20 5.63100E+00 1.50000E+02-3.10000E-14
 -1        21-9.00000E+02-6.50000E+02 1.00000E+02
 -1        22 9.00000E+02-6.50000E+02 1.00000E+02
 -1        23 9.00000E+02 6.50000E+02 1.00000E+02
 -1        24 5.63100E+00 6.50000E+02 1.00000E+02
 -1        25-4.36900E+00 6.50000E+02 1.00000E+02
 -1        26-9.00000E+02 6.50000E+02 1.00000E+02
 -1        27-4.36900E+00 6.50000E+02-1.42000E-13
 -1        28 5.63100E+00 6.50000E+02-1.42000E-13
 -1        29-9.00000E+02 6.50000E+02 0.00000E+00
 -1        30-9.00000E+02-6.50000E+02 0.00000E+00
 -1        31 9.00000E+02 6.50000E+02 0.00000E+00
 -1        32 9.00000E+02-6.50000E+02 0.00000E+00
 -1        33 1.00000E+03-7.50000E+02 1.00000E+02
 -1        34 1.00000E+03-7.50000E+02 0.00000E+00
 -1        35-1.00000E+03-7.50000E+02 1.00000E+02
 -1        36-1.00000E+03-7.50000E+02 0.00000E+00
 -1        37 1.00000E+03 7.50000E+02 1.00000E+02
 -1        38 1.00000E+03 7.50000E+02 0.00000E+00
 -1        39-1.00000E+03 7.50000E+02 1.00000E+02
 -1        40-1.00000E+03 7.50000E+02 0.00000E+00
 -1        41-7.84420E+02 6.60000E+02 1.00000E+01
 -1        42-5.67840E+02 6.60000E+02 1.00000E+01
 -1        43-3.78560E+02 6.60000E+02 1.00000E+01
 -1        44-2.43880E+02 6.60000E+02 1.00000E+01
 -1        45-1.31040E+02 6.60000E+02 1.00000E+01
 -1        46-5.27800E+01 6.60000E+02 1.00000E+01
 -1        47 5.46000E+00 6.60000E+02 1.00000E+01
 -1        48 7.09800E+01 6.60000E+02 1.00000E+01
 -1        49 1.65620E+02 6.60000E+02 1.00000E+01
 -1        50 2.96660E+02 6.60000E+02 1.00000E+01
 -1        51 4.71380E+02 6.60000E+02 1.00000E+01
 -1        52 6.77040E+02 6.60000E+02 1.00000E+01
 -1        53 8.20820E+02 6.60000E+02 1.00000E+01
 -1        54-7.93520E+02 6.60000E+02 9.00000E+01
 -1        55-6.27900E+02 6.60000E+02 9.00000E+01
 -1        56-4.27700E+02 6.60000E+02 9.00000E+01
 -1        57-2.76640E+02 6.60000E+02 9.00000E+01
 -1        58-1.60160E+02 6.60000E+02 9.00000E+01
 -1        59-8.19000E+01 6.60000E+02 9.00000E+01
 -1        60-2.73000E+01 6.60000E+02 9.00000E+01
 -1        61 1.82000E+01 6.60000E+02 9.00000E+01
 -1        62 6.73400E+01 6.60000E+02 9.00000E+01
 -1        63 1.58340E+02 6.60000E+02 9.00000E+01
 -1        64 2.89380E+02 6.60000E+02 9.00000E+01
 -1        65 4.69560E+02 6.60000E+02 9.00000E+01
 -1        66 6.71580E+02 6.60000E+02 9.00000E+01
 -1        67 8.08080E+02 6.60000E+02 9.00000E+01
 -1        68 9.10000E+02 5.57040E+02 1.00000E+01
 -1        69 9.10000E+02 3.99960E+02 1.00000E+01
 -1        70 9.10000E+02 1.46520E+02 1.00000E+01
 -1        71 9.10000E+02-2.42880E+02 1.00000E+01
 -1        72 9.10000E+02-4.40880E+02 1.00000E+01
 -1        73 9.10000E+02-5.70240E+02 1.00000E+01
 -1        74 9.10000E+02 5.39880E+02 9.00000E+01
 -1        75 9.10000E+02 3.76200E+02 9.00000E+01
 -1        76 9.10000E+02 1.14840E+02 9.00000E+01
 -1        77 9.10000E+02-2.03280E+02 9.00000E+01
 -1        78 9.10000E+02-4.15800E+02 9.00000E+01
 -1        79 9.10000E+02-5.57040E+02 9.00000E+01
 -1        80 8.17180E+02-6.60000E+02 1.00000E+01
 -1        81 6.69760E+02-6.60000E+02 1.00000E+01
 -1        82 4.58640E+02-6.60000E+02 1.00000E+01
 -1        83 7.28000E+01-6.60000E+02 1.00000E+01
 -1        84-3.02120E+02-6.60000E+02 1.00000E+01
 -1        85-5.66020E+02-6.60000E+02 1.00000E+01
 -1        86-7.86240E+02-6.60000E+02 1.00000E+01
 -1        87 8.13540E+02-6.60000E+02 9.00000E+01
 -1        88 6.86140E+02-6.60000E+02 9.00000E+01
 -1        89 5.07780E+02-6.60000E+02 9.00000E+01
 -1        90 2.27500E+02-6.60000E+02 9.00000E+01
 -1        91-1.54700E+02-6.60000E+02 9.00000E+01
 -1        92-4.47720E+02-6.60000E+02 9.00000E+01
 -1        93-6.51560E+02-6.60000E+02 9.00000E+01
 -1        94-8.04440E+02-6.60000E+02 9.00000E+01
 -1        95-9.10000E+02-5.68920E+02 1.00000E+01
 -1        96-9.10000E+02-4.38240E+02 1.00000E+01
 -1        97-9.10000E+02-2.38920E+02 1.00000E+01
 -1        98-9.10000E+02 1.53120E+02 1.00000E+01
 -1        99-9.10000E+02 4.03920E+02 1.00000E+01
 -1       100-9.10000E+02 5.58360E+02 1.00000E+01
 -1       101-9.10000E+02-5.54400E+02 9.00000E+01
 -1       102-9.10000E+02-4.13160E+02 9.00000E+01
 -1       103-9.10000E+02-1.99320E+02 9.00000E+01
 -1       104-9.10000E+02 1.20120E+02 9.00000E+01
 -1       105-9.10000E+02 3.78840E+02 9.00000E+01
 -1       106-9.10000E+02 5.42520E+02 9.00000E+01
 -1       107 8.91000E+02-7.40000E+02 1.00000E+01
 -1       108 7.52400E+02-7.40000E+02 1.00000E+01
 -1       109 5.64300E+02-7.40000E+02 1.00000E+01
 -1       110 2.65320E+02-7.40000E+02 1.00000E+01
 -1       111-9.50400E+01-7.40000E+02 1.00000E+01
 -1       112-4.15800E+02-7.40000E+02 1.00000E+01
 -1       113-6.39540E+02-7.40000E+02 1.00000E+01
 -1       114-7.93980E+02-7.40000E+02 1.00000E+01
 -1       115-9.08820E+02-7.40000E+02 1.00000E+01
 -1       116 8.69220E+02-7.40000E+02 9.00000E+01
 -1       117 7.04880E+02-7.40000E+02 9.00000E+01
 -1       118 4.65300E+02-7.40000E+02 9.00000E+01
 -1       119 1.26720E+02-7.40000E+02 9.00000E+01
 -1       120-2.77200E+02-7.40000E+02 9.00000E+01
 -1       121-5.58360E+02-7.40000E+02 9.00000E+01
 -1       122-7.54380E+02-7.40000E+02 9.00000E+01
 -1       123-8.91000E+02-7.40000E+02 9.00000E+01
 -1       124-8.92980E+02 7.40000E+02 9.00000E+01
 -1       125-7.62300E+02 7.40000E+02 9.00000E+01
 -1       126-5.84100E+02 7.40000E+02 9.00000E+01
 -1       127-3.92040E+02 7.40000E+02 9.00000E+01
 -1       128-2.51460E+02 7.40000E+02 9.00000E+01
 -1       129-1.32660E+02 7.40000E+02 9.00000E+01
 -1       130-5.14800E+01 7.40000E+02 9.00000E+01
 -1       131 1.98000E+01 7.40000E+02 9.00000E+01
 -1       132 1.12860E+02 7.40000E+02 9.00000E+01
 -1       133 2.31660E+02 7.40000E+02 9.00000E+01
 -1       134 3.92040E+02 7.40000E+02 9.00000E+01
 -1       135 6.01920E+02 7.40000E+02 9.00000E+01
 -1       136 7.60320E+02 7.40000E+02 9.00000E+01
 -1       137 8.77140E+02 7.40000E+02 9.00000E+01
 -1       138 9.90000E+02 6.36400E+02 9.00000E+01
 -1       139 9.90000E+02 4.85440E+02 9.00000E+01
 -1       140 9.90000E+02 2.67880E+02 9.00000E+01
 -1       141 9.90000E+02-1.62800E+01 9.00000E+01
 -1       142 9.90000E+02-2.88600E+02 9.00000E+01
 -1       143 9.90000E+02-4.91360E+02 9.00000E+01
 -1       144 9.90000E+02-6.34920E+02 9.00000E+01
 -1       145-9.90000E+02-6.31960E+02 9.00000E+01
 -1       146-9.90000E+02-4.88400E+02 9.00000E+01
 -1       147-9.90000E+02-2.84160E+02 9.00000E+01
 -1       148-9.90000E+02-1.18400E+01 9.00000E+01
 -1       149-9.90000E+02 2.72320E+02 9.00000E+01
 -1       150-9.90000E+02 4.88400E+02 9.00000E+01
 -1       151-9.90000E+02 6.39360E+02 9.00000E+01
 -1       152-8.92980E+02 7.40000E+02 1.00000E+01
 -1       153-7.32600E+02 7.40000E+02 1.00000E+01
 -1       154-5.00940E+02 7.40000E+02 1.00000E+01
 -1       155-3.28680E+02 7.40000E+02 1.00000E+01
 -1       156-1.99980E+02 7.40000E+02 1.00000E+01
 -1       157-7.92000E+01 7.40000E+02 1.00000E+01
 -1       158 1.98000E+00 7.40000E+02 1.00000E+01
 -1       159 9.10800E+01 7.40000E+02 1.00000E+01
 -1       160 2.11860E+02 7.40000E+02 1.00000E+01
 -1       161 3.66300E+02 7.40000E+02 1.00000E+01
 -1       162 5.72220E+02 7.40000E+02 1.00000E+01
 -1       163 7.68240E+02 7.40000E+02 1.00000E+01
 -1       164 8.81100E+02 7.40000E+02 1.00000E+01
 -1       165 9.90000E+02 6.39360E+02 1.00000E+01
 -1       166 9.90000E+02 4.91360E+02 1.00000E+01
 -1       167 9.90000E+02 2.96000E+02 1.00000E+01
 -1       168 9.90000E+02-4.73600E+01 1.00000E+01
 -1       169 9.90000E+02-3.28560E+02 1.00000E+01
 -1       170 9.90000E+02-5.10600E+02 1.00000E+01
 -1       171 9.90000E+02-6.45280E+02 1.00000E+01
 -1       172-9.90000E+02-6.42320E+02 1.00000E+01
 -1       173-9.90000E+02-5.37240E+02 1.00000E+01
 -1       174-9.90000E+02-4.02560E+02 1.00000E+01
 -1       175-9.90000E+02-2.17560E+02 1.00000E+01
 -1       176-9.90000E+02 1.80560E+02 1.00000E+01
 -1       177-9.90000E+02 3.98120E+02 1.00000E+01
 -1       178-9.90000E+02 5.44640E+02 1.00000E+01
 -1       179-9.90000E+02 6.54160E+02 1.00000E+01
 -1       180 5.63100E+00 1.50000E+02 7.03000E+01
 -1       181 5.63100E+00 1.50000E+02 3.22000E+01
 -1       182-4.36900E+00 1.50000E+02 3.24000E+01
 -1       183-4.36900E+00 1.50000E+02 7.05000E+01
 -1       184-4.36900E+00 6.16500E+02-1.34740E-13
 -1       185-4.36900E+00 5.66500E+02-1.23740E-13
 -1       186-4.36900E+00 5.00500E+02-1.09220E-13
 -1       187-4.36900E+00 4.03500E+02-8.78800E-14
 -1       188-4.36900E+00 2.98500E+02-6.47800E-14
 -1       189-4.36900E+00 2.26000E+02-4.88300E-14
 -1       190-4.36900E+00 1.81000E+02-3.89300E-14
 -1       191-4.36900E+00 6.16000E+02 1.00000E+02
 -1       192-4.36900E+00 5.66000E+02 1.00000E+02
 -1       193-4.36900E+00 4.99000E+02 1.00000E+02
 -1       194-4.36900E+00 3.99500E+02 1.00000E+02
 -1       195-4.36900E+00 3.01000E+02 1.00000E+02
 -1       196-4.36900E+00 2.27000E+02 1.00000E+02
 -1       197-4.36900E+00 1.81500E+02 1.00000E+02
 -1       198-4.36900E+00 6.50000E+02 3.24000E+01
 -1       199-4.36900E+00 6.50000E+02 7.05000E+01
 -1       200 5.63100E+00 6.16000E+02 1.00000E+02
 -1       201 5.63100E+00 5.66000E+02 1.00000E+02
 -1       202 5.63100E+00 4.99000E+02 1.00000E+02
 -1       203 5.63100E+00 3.99500E+02 1.00000E+02
 -1       204 5.63100E+00 3.01000E+02 1.00000E+02
 -1       205 5.63100E+00 2.27000E+02 1.00000E+02
 -1       206 5.63100E+00 1.81500E+02 1.00000E+02
 -1       207 5.63100E+00 6.16500E+02-1.34740E-13
 -1       208 5.63100E+00 5.66500E+02-1.23740E-13
 -1       209 5.63100E+00 5.00500E+02-1.09220E-13
 -1       210 5.63100E+00 4.03500E+02-8.78800E-14
 -1       211 5.63100E+00 2.98500E+02-6.47800E-14
 -1       212 5.63100E+00 2.26000E+02-4.88300E-14
 -1       213 5.63100E+00 1.81000E+02-3.89300E-14
 -1       214 5.63100E+00 6.50000E+02 7.03000E+01
 -1       215 5.63100E+00 6.50000E+02 3.22000E+01
 -1       216-7.76403E+02 6.50000E+02 1.00000E+02
 -1       217-6.11607E+02 6.50000E+02 1.00000E+02
 -1       218-4.09194E+02 6.50000E+02 1.00000E+02
 -1       219-2.69476E+02 6.50000E+02 1.00000E+02
 -1       220-1.70061E+02 6.50000E+02 1.00000E+02
 -1       221-9.57234E+01 6.50000E+02 1.00000E+02
 -1       222-4.28811E+01 6.50000E+02 1.00000E+02
 -1       223-4.37768E+01 6.50000E+02 0.00000E+00
 -1       224-9.57234E+01 6.50000E+02 0.00000E+00
 -1       225-1.69165E+02 6.50000E+02 0.00000E+00
 -1       226-2.74850E+02 6.50000E+02 0.00000E+00
 -1       227-4.16359E+02 6.50000E+02 0.00000E+00
 -1       228-6.20563E+02 6.50000E+02 0.00000E+00
 -1       229-7.79090E+02 6.50000E+02 0.00000E+00
 -1       230 3.96170E+01 6.50000E+02 1.00000E+02
 -1       231 9.77510E+01 6.50000E+02 1.00000E+02
 -1       232 2.03287E+02 6.50000E+02 1.00000E+02
 -1       233 3.44597E+02 6.50000E+02 1.00000E+02
 -1       234 5.69978E+02 6.50000E+02 1.00000E+02
 -1       235 7.60478E+02 6.50000E+02 1.00000E+02
 -1       236 7.89993E+02 6.50000E+02 0.00000E+00
 -1       237 6.50471E+02 6.50000E+02 0.00000E+00
 -1       238 4.59970E+02 6.50000E+02 0.00000E+00
 -1       239 3.16871E+02 6.50000E+02 0.00000E+00
 -1       240 2.10441E+02 6.50000E+02 0.00000E+00
 -1       241 1.36209E+02 6.50000E+02 0.00000E+00
 -1       242 8.16524E+01 6.50000E+02 0.00000E+00
 -1       243 3.78283E+01 6.50000E+02 0.00000E+00
 -1       244-9.00000E+02-5.43400E+02 1.00000E+02
 -1       245-9.00000E+02-4.01700E+02 1.00000E+02
 -1       246-9.00000E+02-1.91100E+02 1.00000E+02
 -1       247-9.00000E+02 1.18300E+02 1.00000E+02
 -1       248-9.00000E+02 3.73100E+02 1.00000E+02
 -1       249-9.00000E+02 5.33000E+02 1.00000E+02
 -1       250-9.00000E+02 5.42100E+02 0.00000E+00
 -1       251-9.00000E+02 3.91300E+02 0.00000E+00
 -1       252-9.00000E+02 1.54700E+02 0.00000E+00
 -1       253-9.00000E+02-2.24900E+02 0.00000E+00
 -1       254-9.00000E+02-4.19900E+02 0.00000E+00
 -1       255-9.00000E+02-5.47300E+02 0.00000E+00
 -1       256 7.88400E+02-6.50000E+02 1.00000E+02
 -1       257 6.37200E+02-6.50000E+02 1.00000E+02
 -1       258 4.03200E+02-6.50000E+02 1.00000E+02
 -1       259 5.04000E+01-6.50000E+02 1.00000E+02
 -1       260-3.38400E+02-6.50000E+02 1.00000E+02
 -1       261-5.94000E+02-6.50000E+02 1.00000E+02
 -1       262-7.74000E+02-6.50000E+02 1.00000E+02
 -1       263-7.59600E+02-6.50000E+02 0.00000E+00
 -1       264-5.49000E+02-6.50000E+02 0.00000E+00
 -1       265-2.95200E+02-6.50000E+02 0.00000E+00
 -1       266 6.48000E+01-6.50000E+02 0.00000E+00
 -1       267 4.32000E+02-6.50000E+02 0.00000E+00
 -1       268 6.44400E+02-6.50000E+02 0.00000E+00
 -1       269 7.99200E+02-6.50000E+02 0.00000E+00
 -1       270 9.00000E+02 5.30400E+02 1.00000E+02
 -1       271 9.00000E+02 3.70500E+02 1.00000E+02
 -1       272 9.00000E+02 1.14400E+02 1.00000E+02
 -1       273 9.00000E+02-1.95000E+02 1.00000E+02
 -1       274 9.00000E+02-4.04300E+02 1.00000E+02
 -1       275 9.00000E+02-5.46000E+02 1.00000E+02
 -1       276 9.00000E+02-5.46000E+02 0.00000E+00
 -1       277 9.00000E+02-4.17300E+02 0.00000E+00
 -1       278 9.00000E+02-2.22300E+02 0.00000E+00
 -1       279 9.00000E+02 1.59900E+02 0.00000E+00
 -1       280 9.00000E+02 3.93900E+02 0.00000E+00
 -1       281 9.00000E+02 5.44700E+02 0.00000E+00
 -1       282 8.82000E+02-7.50000E+02 0.00000E+00
 -1       283 7.22000E+02-7.50000E+02 0.00000E+00
 -1       284 5.08000E+02-7.50000E+02 0.00000E+00
 -1       285 1.38000E+02-7.50000E+02 0.00000E+00
 -1       286-2.58000E+02-7.50000E+02 0.00000E+00
 -1       287-5.44000E+02-7.50000E+02 0.00000E+00
 -1       288-7.46000E+02-7.50000E+02 0.00000E+00
 -1       289-8.84000E+02-7.50000E+02 0.00000E+00
 -1       290 8.94000E+02-7.50000E+02 1.00000E+02
 -1       291 7.56000E+02-7.50000E+02 1.00000E+02
 -1       292 5.54000E+02-7.50000E+02 1.00000E+02
 -1       293 2.84000E+02-7.50000E+02 1.00000E+02
 -1       294-8.00000E+01-7.50000E+02 1.00000E+02
 -1       295-4.10000E+02-7.50000E+02 1.00000E+02
 -1       296-6.38000E+02-7.50000E+02 1.00000E+02
 -1       297-7.96000E+02-7.50000E+02 1.00000E+02
 -1       298-9.14000E+02-7.50000E+02 1.00000E+02
 -1       299-9.12000E+02 7.50000E+02 1.00000E+02
 -1       300-7.94000E+02 7.50000E+02 1.00000E+02
 -1       301-6.36000E+02 7.50000E+02 1.00000E+02
 -1       302-4.46000E+02 7.50000E+02 1.00000E+02
 -1       303-2.94000E+02 7.50000E+02 1.00000E+02
 -1       304-1.80000E+02 7.50000E+02 1.00000E+02
 -1       305-8.40000E+01 7.50000E+02 1.00000E+02
 -1       306-1.60000E+01 7.50000E+02 1.00000E+02
 -1       307 5.80000E+01 7.50000E+02 1.00000E+02
 -1       308 1.60000E+02 7.50000E+02 1.00000E+02
 -1       309 2.84000E+02 7.50000E+02 1.00000E+02
 -1       310 4.50000E+02 7.50000E+02 1.00000E+02
 -1       311 6.50000E+02 7.50000E+02 1.00000E+02
 -1       312 7.88000E+02 7.50000E+02 1.00000E+02
 -1       313 8.98000E+02 7.50000E+02 1.00000E+02
 -1       314-1.00000E+03-6.40500E+02 1.00000E+02
 -1       315-1.00000E+03-4.99500E+02 1.00000E+02
 -1       316-1.00000E+03-2.95500E+02 1.00000E+02
 -1       317-1.00000E+03-2.55000E+01 1.00000E+02
 -1       318-1.00000E+03 2.64000E+02 1.00000E+02
 -1       319-1.00000E+03 4.83000E+02 1.00000E+02
 -1       320-1.00000E+03 6.36000E+02 1.00000E+02
 -1       321 1.00000E+03 6.51000E+02 1.00000E+02
 -1       322 1.00000E+03 4.96500E+02 1.00000E+02
 -1       323 1.00000E+03 2.76000E+02 1.00000E+02
 -1       324 1.00000E+03-1.65000E+01 1.00000E+02
 -1       325 1.00000E+03-2.95500E+02 1.00000E+02
 -1       326 1.00000E+03-5.02500E+02 1.00000E+02
 -1       327 1.00000E+03-6.45000E+02 1.00000E+02
 -1       328-8.90000E+02 7.50000E+02 0.00000E+00
 -1       329-7.34000E+02 7.50000E+02 0.00000E+00
 -1       330-5.08000E+02 7.50000E+02 0.00000E+00
 -1       331-3.38000E+02 7.50000E+02 0.00000E+00
 -1       332-2.10000E+02 7.50000E+02 0.00000E+00
 -1       333-1.04000E+02 7.50000E+02 0.00000E+00
 -1       334-3.00000E+01 7.50000E+02 0.00000E+00
 -1       335 4.20000E+01 7.50000E+02 0.00000E+00
 -1       336 1.20000E+02 7.50000E+02 0.00000E+00
 -1       337 2.36000E+02 7.50000E+02 0.00000E+00
 -1       338 3.98000E+02 7.50000E+02 0.00000E+00
 -1       339 6.04000E+02 7.50000E+02 0.00000E+00
 -1       340 7.84000E+02 7.50000E+02 0.00000E+00
 -1       341 8.92000E+02 7.50000E+02 0.00000E+00
 -1       342-1.00000E+03-6.46500E+02 0.00000E+00
 -1       343-1.00000E+03-5.40000E+02 0.00000E+00
 -1       344-1.00000E+03-4.06500E+02 0.00000E+00
 -1       345-1.00000E+03-2.23500E+02 0.00000E+00
 -1       346-1.00000E+03 1.63500E+02 0.00000E+00
 -1       347-1.00000E+03 3.90000E+02 0.00000E+00
 -1       348-1.00000E+03 5.38500E+02 0.00000E+00
 -1       349-1.00000E+03 6.48000E+02 0.00000E+00
 -1       350 1.00000E+03 6.37500E+02 0.00000E+00
 -1       351 1.00000E+03 4.90500E+02 0.00000E+00
 -1       352 1.00000E+03 2.95500E+02 0.00000E+00
 -1       353 1.00000E+03-4.95000E+01 0.00000E+00
 -1       354 1.00000E+03-3.28500E+02 0.00000E+00
 -1       355 1.00000E+03-5.11500E+02 0.00000E+00
 -1       356 1.00000E+03-6.45000E+02 0.00000E+00
 -1       357 4.27700E+01 6.60000E+02 5.00928E+01
 -1       358 4.27700E+01 6.99907E+02 9.00000E+01
 -1       359-3.75000E+00 7.00000E+02 9.00000E+01
 -1       360-9.22342E+02-1.24654E+02 1.00000E+01
 -1       361-4.36900E+00 5.91500E+02 4.68708E+01
 -1       362-4.36900E+00 5.25500E+02 4.68708E+01
 -1       363-4.36900E+00 1.89907E+02 5.14500E+01
 -1       364 5.63100E+00 5.91000E+02 5.31292E+01
 -1       365 5.63100E+00 5.24000E+02 5.31292E+01
 -1       366 5.63100E+00 1.89907E+02 5.12500E+01
 -1       367 6.30996E-01 5.96979E+02 1.00000E+02
 -1       368 6.30996E-01 2.00521E+02 1.00000E+02
 -1       369 6.30996E-01 5.38938E+02 1.00000E+02
 -1       370 6.30996E-01 2.54062E+02 1.00000E+02
 -1       371 6.30996E-01 4.63897E+02 1.00000E+02
 -1       372 6.30996E-01 3.44144E+02 1.00000E+02
 -1       373-6.93023E+01 6.50000E+02 5.31292E+01
 -1       374 6.30996E-01 5.97479E+02-1.30555E-13
 -1       375 6.30996E-01 2.00021E+02-4.31145E-14
 -1       376 6.30996E-01 5.39438E+02-1.17786E-13
 -1       377 6.30996E-01 4.65397E+02-1.01497E-13
 -1       378 6.30996E-01 3.41644E+02-7.42717E-14
 -1       379 6.86840E+01 6.50000E+02 5.35760E+01
 -1       380-2.36251E+01 6.82944E+02 1.00000E+02
 -1       381 2.26240E+01 6.82944E+02 1.00000E+02
 -1       382-5.00000E+01 6.89202E+02 1.00000E+02
 -1       383 6.65873E+01 6.84766E+02 1.00000E+02
 -1       384 6.30996E-01 6.75980E+02 1.00000E+02
 -1       385 1.08931E+02 6.96871E+02 0.00000E+00
 -1       386 6.51065E+01 6.96871E+02 0.00000E+00
 -1       387 3.29093E+01 6.96871E+02 0.00000E+00
 -1       388-2.40729E+01 6.82944E+02 0.00000E+00
 -1       389-7.60195E+01 6.82944E+02 0.00000E+00
 -1       390 6.30996E-01 6.75980E+02 0.00000E+00
 -1       391-9.48499E+02-1.16996E+02 0.00000E+00
 -1       392-9.69014E+02-5.69695E+01 0.00000E+00
 -1       393 9.42096E+02 6.93423E+02 4.56408E+00
 -1       394 9.40855E+02 7.45056E+02 4.74527E+01
 -1       395-2.39446E+00 6.54818E+02 5.34049E+01
 -1       396 3.87661E+00 4.46214E+02 2.90012E+01
 -1       397 1.77410E-01 3.41823E+02 5.09450E+01
 -1       398-9.10000E+02 6.60000E+02 5.00000E+01
 -1       399 9.10000E+02 6.60000E+02 5.00000E+01
 -1       400-8.47210E+02 6.60000E+02 1.00000E+01
 -1       401-6.76130E+02 6.60000E+02 1.00000E+01
 -1       402-4.73200E+02 6.60000E+02 1.00000E+01
 -1       403-3.11220E+02 6.60000E+02 1.00000E+01
 -1       404-1.87460E+02 6.60000E+02 1.00000E+01
 -1       405-9.19100E+01 6.60000E+02 1.00000E+01
 -1       406-2.36600E+01 6.60000E+02 1.00000E+01
 -1       407 3.82200E+01 6.60000E+02 1.00000E+01
 -1       408 1.18300E+02 6.60000E+02 1.00000E+01
 -1       409 2.31140E+02 6.60000E+02 1.00000E+01
 -1       410 3.84020E+02 6.60000E+02 1.00000E+01
 -1       411 5.74210E+02 6.60000E+02 1.00000E+01
 -1       412 7.48930E+02 6.60000E+02 1.00000E+01
 -1       413 8.65410E+02 6.60000E+02 1.00000E+01
 -1       414-8.51760E+02 6.60000E+02 9.00000E+01
 -1       415-7.10710E+02 6.60000E+02 9.00000E+01
 -1       416-5.27800E+02 6.60000E+02 9.00000E+01
 -1       417-3.52170E+02 6.60000E+02 9.00000E+01
 -1       418-2.18400E+02 6.60000E+02 9.00000E+01
 -1       419-1.21030E+02 6.60000E+02 9.00000E+01
 -1       420-5.46000E+01 6.60000E+02 9.00000E+01
 -1       421-4.55000E+00 6.60000E+02 9.00000E+01
 -1       422 4.27700E+01 6.60000E+02 9.00000E+01
 -1       423 1.12840E+02 6.60000E+02 9.00000E+01
 -1       424 2.23860E+02 6.60000E+02 9.00000E+01
 -1       425 3.79470E+02 6.60000E+02 9.00000E+01
 -1       426 5.70570E+02 6.60000E+02 9.00000E+01
 -1       427 7.39830E+02 6.60000E+02 9.00000E+01
 -1       428 8.59040E+02 6.60000E+02 9.00000E+01
 -1       429 9.10000E+02-6.60000E+02 5.00000E+01
 -1       430 9.10000E+02 6.08520E+02 1.00000E+01
 -1       431 9.10000E+02 4.78500E+02 1.00000E+01
 -1       432 9.10000E+02 2.73240E+02 1.00000E+01
 -1       433 9.10000E+02-4.81800E+01 1.00000E+01
 -1       434 9.10000E+02-3.41880E+02 1.00000E+01
 -1       435 9.10000E+02-5.05560E+02 1.00000E+01
 -1       436 9.10000E+02-6.15120E+02 1.00000E+01
 -1       437 9.10000E+02 5.99940E+02 9.00000E+01
 -1       438 9.10000E+02 4.58040E+02 9.00000E+01
 -1       439 9.10000E+02 2.45520E+02 9.00000E+01
 -1       440 9.10000E+02-4.42200E+01 9.00000E+01
 -1       441 9.10000E+02-3.09540E+02 9.00000E+01
 -1       442 9.10000E+02-4.86420E+02 9.00000E+01
 -1       443 9.10000E+02-6.08520E+02 9.00000E+01
 -1       444-9.10000E+02-6.60000E+02 5.00000E+01
 -1       445 8.63590E+02-6.60000E+02 1.00000E+01
 -1       446 7.43470E+02-6.60000E+02 1.00000E+01
 -1       447 5.64200E+02-6.60000E+02 1.00000E+01
 -1       448 2.65720E+02-6.60000E+02 1.00000E+01
 -1       449-1.14660E+02-6.60000E+02 1.00000E+01
 -1       450-4.34070E+02-6.60000E+02 1.00000E+01
 -1       451-6.76130E+02-6.60000E+02 1.00000E+01
 -1       452-8.48120E+02-6.60000E+02 1.00000E+01
 -1       453 8.61770E+02-6.60000E+02 9.00000E+01
 -1       454 7.49840E+02-6.60000E+02 9.00000E+01
 -1       455 5.96960E+02-6.60000E+02 9.00000E+01
 -1       456 3.67640E+02-6.60000E+02 9.00000E+01
 -1       457 3.64000E+01-6.60000E+02 9.00000E+01
 -1       458-3.01210E+02-6.60000E+02 9.00000E+01
 -1       459-5.49640E+02-6.60000E+02 9.00000E+01
 -1       460-7.28000E+02-6.60000E+02 9.00000E+01
 -1       461-8.57220E+02-6.60000E+02 9.00000E+01
 -1       462-9.10000E+02-6.14460E+02 1.00000E+01
 -1       463-9.10000E+02-5.03580E+02 1.00000E+01
 -1       464-9.10000E+02-3.38580E+02 1.00000E+01
 -1       465-9.10000E+02-4.29000E+01 1.00000E+01
 -1       466-9.10000E+02 2.78520E+02 1.00000E+01
 -1       467-9.10000E+02 4.81140E+02 1.00000E+01
 -1       468-9.10000E+02 6.09180E+02 1.00000E+01
 -1       469-9.10000E+02-6.07200E+02 9.00000E+01
 -1       470-9.10000E+02-4.83780E+02 9.00000E+01
 -1       471-9.10000E+02-3.06240E+02 9.00000E+01
 -1       472-9.10000E+02-3.96000E+01 9.00000E+01
 -1       473-9.10000E+02 2.49480E+02 9.00000E+01
 -1       474-9.10000E+02 4.60680E+02 9.00000E+01
 -1       475-9.10000E+02 6.01260E+02 9.00000E+01
 -1       476 9.90000E+02-7.40000E+02 5.00000E+01
 -1       477-9.90000E+02-7.40000E+02 5.00000E+01
 -1       478 9.40500E+02-7.40000E+02 1.00000E+01
 -1       479 8.21700E+02-7.40000E+02 1.00000E+01
 -1       480 6.58350E+02-7.40000E+02 1.00000E+01
 -1       481 4.14810E+02-7.40000E+02 1.00000E+01
 -1       482 8.51400E+01-7.40000E+02 1.00000E+01
 -1       483-2.55420E+02-7.40000E+02 1.00000E+01
 -1       484-5.27670E+02-7.40000E+02 1.00000E+01
 -1       485-7.16760E+02-7.40000E+02 1.00000E+01
 -1       486-8.51400E+02-7.40000E+02 1.00000E+01
 -1       487-9.49410E+02-7.40000E+02 1.00000E+01
 -1       488 9.29610E+02-7.40000E+02 9.00000E+01
 -1       489 7.87050E+02-7.40000E+02 9.00000E+01
 -1       490 5.85090E+02-7.40000E+02 9.00000E+01
 -1       491 2.96010E+02-7.40000E+02 9.00000E+01
 -1       492-7.52400E+01-7.40000E+02 9.00000E+01
 -1       493-4.17780E+02-7.40000E+02 9.00000E+01
 -1       494-6.56370E+02-7.40000E+02 9.00000E+01
 -1       495-8.22690E+02-7.40000E+02 9.00000E+01
 -1       496-9.40500E+02-7.40000E+02 9.00000E+01
 -1       497-9.41490E+02 7.40000E+02 9.00000E+01
 -1       498-8.27640E+02 7.40000E+02 9.00000E+01
 -1       499-6.73200E+02 7.40000E+02 9.00000E+01
 -1       500-4.88070E+02 7.40000E+02 9.00000E+01
 -1       501-3.21750E+02 7.40000E+02 9.00000E+01
 -1       502-1.92060E+02 7.40000E+02 9.00000E+01
 -1       503-9.20700E+01 7.40000E+02 9.00000E+01
 -1       504-1.58400E+01 7.40000E+02 9.00000E+01
 -1       505 6.63300E+01 7.40000E+02 9.00000E+01
 -1       506 1.72260E+02 7.40000E+02 9.00000E+01
 -1       507 3.11850E+02 7.40000E+02 9.00000E+01
 -1       508 4.96980E+02 7.40000E+02 9.00000E+01
 -1       509 6.81120E+02 7.40000E+02 9.00000E+01
 -1       510 8.18730E+02 7.40000E+02 9.00000E+01
 -1       511 9.33570E+02 7.40000E+02 9.00000E+01
 -1       512 9.90000E+02 6.88200E+02 9.00000E+01
 -1       513 9.90000E+02 5.60920E+02 9.00000E+01
 -1       514 9.90000E+02 3.76660E+02 9.00000E+01
 -1       515 9.90000E+02 1.25800E+02 9.00000E+01
 -1       516 9.90000E+02-1.52440E+02 9.00000E+01
 -1       517 9.90000E+02-3.89980E+02 9.00000E+01
 -1       518 9.90000E+02-5.63140E+02 9.00000E+01
 -1       519 9.90000E+02-6.87460E+02 9.00000E+01
 -1       520-9.90000E+02-6.85980E+02 9.00000E+01
 -1       521-9.90000E+02-5.60180E+02 9.00000E+01
 -1       522-9.90000E+02-3.86280E+02 9.00000E+01
 -1       523-9.90000E+02-1.48000E+02 9.00000E+01
 -1       524-9.90000E+02 1.30240E+02 9.00000E+01
 -1       525-9.90000E+02 3.80360E+02 9.00000E+01
 -1       526-9.90000E+02 5.63880E+02 9.00000E+01
 -1       527-9.90000E+02 6.89680E+02 9.00000E+01
 -1       528-9.41490E+02 7.40000E+02 1.00000E+01
 -1       529-8.12790E+02 7.40000E+02 1.00000E+01
 -1       530-6.16770E+02 7.40000E+02 1.00000E+01
 -1       531-4.14810E+02 7.40000E+02 1.00000E+01
 -1       532-2.64330E+02 7.40000E+02 1.00000E+01
 -1       533-1.39590E+02 7.40000E+02 1.00000E+01
 -1       534-3.86100E+01 7.40000E+02 1.00000E+01
 -1       535 4.65300E+01 7.40000E+02 1.00000E+01
 -1       536 1.51470E+02 7.40000E+02 1.00000E+01
 -1       537 2.89080E+02 7.40000E+02 1.00000E+01
 -1       538 4.69260E+02 7.40000E+02 1.00000E+01
 -1       539 6.70230E+02 7.40000E+02 1.00000E+01
 -1       540 8.24670E+02 7.40000E+02 1.00000E+01
 -1       541 9.35550E+02 7.40000E+02 1.00000E+01
 -1       542 9.90000E+02 6.89680E+02 1.00000E+01
 -1       543 9.90000E+02 5.65360E+02 1.00000E+01
 -1       544 9.90000E+02 3.93680E+02 1.00000E+01
 -1       545 9.90000E+02 1.24320E+02 1.00000E+01
 -1       546 9.90000E+02-1.87960E+02 1.00000E+01
 -1       547 9.90000E+02-4.19580E+02 1.00000E+01
 -1       548 9.90000E+02-5.77940E+02 1.00000E+01
 -1       549 9.90000E+02-6.92640E+02 1.00000E+01
 -1       550-9.90000E+02-6.91160E+02 1.00000E+01
 -1       551-9.90000E+02-5.89780E+02 1.00000E+01
 -1       552-9.90000E+02-4.69900E+02 1.00000E+01
 -1       553-9.90000E+02-3.10060E+02 1.00000E+01
 -1       554-9.90000E+02-1.85000E+01 1.00000E+01
 -1       555-9.90000E+02 2.89340E+02 1.00000E+01
 -1       556-9.90000E+02 4.71380E+02 1.00000E+01
 -1       557-9.90000E+02 5.99400E+02 1.00000E+01
 -1       558-9.90000E+02 6.97080E+02 1.00000E+01
 -1       559 9.90000E+02 7.40000E+02 5.00000E+01
 -1       560-9.90000E+02 7.40000E+02 5.00000E+01
 -1       561 6.30996E-01 1.50000E+02 1.00000E+02
 -1       562 5.63100E+00 1.50000E+02 8.51500E+01
 -1       563 5.63100E+00 1.50000E+02 5.12500E+01
 -1       564 5.63100E+00 1.50000E+02 1.61000E+01
 -1       565 6.30996E-01 1.50000E+02-3.11100E-14
 -1       566-4.36900E+00 1.50000E+02 1.62000E+01
 -1       567-4.36900E+00 1.50000E+02 5.14500E+01
 -1       568-4.36900E+00 1.50000E+02 8.52500E+01
 -1       569-4.36900E+00 6.33250E+02-1.38425E-13
 -1       570-4.36900E+00 5.91500E+02-1.29240E-13
 -1       571-4.36900E+00 5.33500E+02-1.16480E-13
 -1       572-4.36900E+00 4.52000E+02-9.85500E-14
 -1       573-4.36900E+00 3.51000E+02-7.63300E-14
 -1       574-4.36900E+00 2.62250E+02-5.68050E-14
 -1       575-4.36900E+00 2.03500E+02-4.38800E-14
 -1       576-4.36900E+00 1.65500E+02-3.55200E-14
 -1       577-4.36900E+00 6.33000E+02 1.00000E+02
 -1       578-4.36900E+00 5.91000E+02 1.00000E+02
 -1       579-4.36900E+00 5.32500E+02 1.00000E+02
 -1       580-4.36900E+00 4.49250E+02 1.00000E+02
 -1       581-4.36900E+00 3.50250E+02 1.00000E+02
 -1       582-4.36900E+00 2.64000E+02 1.00000E+02
 -1       583-4.36900E+00 2.04250E+02 1.00000E+02