    1C
    1UModel: balk                                                       
    1UUSER                                                              
    1UDATE              12.october.2021                                 
    1UTIME              22:54:28                                        
    1UHOST                                                              
    1UPGM               CalculiX                                        
    1UVERSION           Version 2.10                             
    1UCOMPILETIME       Sa 5. Mär 12:23:33 CET 2016                    
    1UDIR                                                               
    1UDBN                                                               
    1UMAT    1EL                                                        
    2C                            98                                     1
 -1         10.00000E+0000.00000E+0000.00000E+000
 -1         21.00000E+0000.00000E+0000.00000E+000
 -1         31.00000E+0001.00000E+0000.00000E+000
 -1         40.00000E+0001.00000E+0000.00000E+000
 -1         50.00000E+0000.00000E+0001.00000E+000
 -1         61.00000E+0000.00000E+0001.00000E+000
 -1         71.00000E+0001.00000E+0001.00000E+000
 -1         80.00000E+0001.00000E+0001.00000E+000
 -1         92.50000E-0010.00000E+0000.00000E+000
 -1        105.00000E-0010.00000E+0000.00000E+000
 -1        117.50000E-0010.00000E+0000.00000E+000
 -1        121.00000E+0002.50000E-0010.00000E+000
 -1        131.00000E+0005.00000E-0010.00000E+000
 -1        141.00000E+0007.50000E-0010.00000E+000
 -1        157.50000E-0011.00000E+0000.00000E+000
 -1        165.00000E-0011.00000E+0000.00000E+000
 -1        172.50000E-0011.00000E+0000.00000E+000
 -1        180.00000E+0007.50000E-0010.00000E+000
 -1        190.00000E+0005.00000E-0010.00000E+000
 -1        200.00000E+0002.50000E-0010.00000E+000
 -1        212.50000E-0010.00000E+0001.00000E+000
 -1        225.00000E-0010.00000E+0001.00000E+000
 -1        237.50000E-0010.00000E+0001.00000E+000
 -1        241.00000E+0002.50000E-0011.00000E+000
 -1        251.00000E+0005.00000E-0011.00000E+000
 -1        261.00000E+0007.50000E-0011.00000E+000
 -1        277.50000E-0011.00000E+0001.00000E+000
 -1        285.00000E-0011.00000E+0001.00000E+000
 -1        292.50000E-0011.00000E+0001.00000E+000
 -1        300.00000E+0007.50000E-0011.00000E+000
 -1        310.00000E+0005.00000E-0011.00000E+000
 -1        320.00000E+0002.50000E-0011.00000E+000
 -1        331.00000E+0000.00000E+0002.50000E-001
 -1        341.00000E+0000.00000E+0005.00000E-001
 -1        351.00000E+0000.00000E+0007.50000E-001
 -1        360.00000E+0000.00000E+0007.50000E-001
 -1        370.00000E+0000.00000E+0005.00000E-001
 -1        380.00000E+0000.00000E+0002.50000E-001
 -1        391.00000E+0001.00000E+0002.50000E-001
 -1        401.00000E+0001.00000E+0005.00000E-001
 -1        411.00000E+0001.00000E+0007.50000E-001
 -1        420.00000E+0001.00000E+0002.50000E-001
 -1        430.00000E+0001.00000E+0005.00000E-001
 -1        440.00000E+0001.00000E+0007.50000E-001
 -1        455.00000E-0012.50000E-0010.00000E+000
 -1        462.50000E-0015.00000E-0010.00000E+000
 -1        475.00000E-0015.00000E-0010.00000E+000
 -1        487.50000E-0015.00000E-0010.00000E+000
 -1        495.00000E-0017.50000E-0010.00000E+000
 -1        505.00000E-0012.50000E-0011.00000E+000
 -1        512.50000E-0015.00000E-0011.00000E+000
 -1        525.00000E-0015.00000E-0011.00000E+000
 -1        537.50000E-0015.00000E-0011.00000E+000
 -1        545.00000E-0017.50000E-0011.00000E+000
 -1        555.00000E-0010.00000E+0002.50000E-001
 -1        562.50000E-0010.00000E+0005.00000E-001
 -1        575.00000E-0010.00000E+0005.00000E-001
 -1        587.50000E-0010.00000E+0005.00000E-001
 -1        595.00000E-0010.00000E+0007.50000E-001
 -1        601.00000E+0005.00000E-0012.50000E-001
 -1        611.00000E+0002.50000E-0015.00000E-001
 -1        621.00000E+0005.00000E-0015.00000E-001
 -1        631.00000E+0007.50000E-0015.00000E-001
 -1        641.00000E+0005.00000E-0017.50000E-001
 -1        655.00000E-0011.00000E+0002.50000E-001
 -1        667.50000E-0011.00000E+0005.00000E-001
 -1        675.00000E-0011.00000E+0005.00000E-001
 -1        682.50000E-0011.00000E+0005.00000E-001
 -1        695.00000E-0011.00000E+0007.50000E-001
 -1        700.00000E+0005.00000E-0012.50000E-001
 -1        710.00000E+0007.50000E-0015.00000E-001
 -1        720.00000E+0005.00000E-0015.00000E-001
 -1        730.00000E+0002.50000E-0015.00000E-001
 -1        740.00000E+0005.00000E-0017.50000E-001
 -1        755.00000E-0015.00000E-0012.50000E-001
 -1        765.00000E-0012.50000E-0015.00000E-001
 -1        772.50000E-0015.00000E-0015.00000E-001
 -1        785.00000E-0015.00000E-0015.00000E-001
 -1        797.50000E-0015.00000E-0015.00000E-001
 -1        805.00000E-0017.50000E-0015.00000E-001
 -1        815.00000E-0015.00000E-0017.50000E-001
 -1       1562.50000E-0010.00000E+0005.00000E-001
 -1       1575.00000E-0010.00000E+0005.00000E-001
 -1       1587.50000E-0010.00000E+0005.00000E-001
 -1       1611.00000E+0002.50000E-0015.00000E-001
 -1       1621.00000E+0005.00000E-0015.00000E-001
 -1       1631.00000E+0007.50000E-0015.00000E-001
 -1       1667.50000E-0011.00000E+0005.00000E-001
 -1       1675.00000E-0011.00000E+0005.00000E-001
 -1       1682.50000E-0011.00000E+0005.00000E-001
 -1       1710.00000E+0007.50000E-0015.00000E-001
 -1       1720.00000E+0005.00000E-0015.00000E-001
 -1       1730.00000E+0002.50000E-0015.00000E-001
 -1       1765.00000E-0012.50000E-0015.00000E-001
 -1       1772.50000E-0015.00000E-0015.00000E-001
 -1       1785.00000E-0015.00000E-0015.00000E-001
 -1       1797.50000E-0015.00000E-0015.00000E-001
 -1       1805.00000E-0017.50000E-0015.00000E-001
 -3
    3C                             8                                     1
 -1         1    4    0    1
 -2         1        10        47        19        37        57        78        72         9        45
 -2        46        20        38        55        75        70        56        76        77        73
 -1         2    4    0    1
 -2        10         2        13        47        57        34        62        78        11        12
 -2        48        45        55        33        60        75        58        61        79        76
 -1         3    4    0    1
 -2        19        47        16         4        72        78        67        43        46        49
 -2        17        18        70        75        65        42        77        80        68        71
 -1         4    4    0    1
 -2        47        13         3        16        78        62        40        67        48        14
 -2        15        49        75        60        39        65        79        63        66        80
 -1         5    4    0    1
 -2        37       157       178       172         5        22        52        31       156       176
 -2       177       173        36        59        81        74        21        50        51        32
 -1         6    4    0    1
 -2       157        34       162       178        22         6        25        52       158       161
 -2       179       176        59        35        64        81        23        24        53        50
 -1         7    4    0    1
 -2       172       178       167        43        31        52        28         8       177       180
 -2       168       171        74        81        69        44        51        54        29        30
 -1         8    4    0    1
 -2       178       162        40       167        52        25         7        28       179       163
 -2       166       180        81        64        41        69        53        26        27        54
 -3
 9999
